material_id,formula_pretty,symmetry.crystal_system,symmetry.number,bulk_modulus.vrh,shear_modulus.vrh,youngs_modulus_vrh
mp-bmzkh,CrTe2,Trigonal,164,30.068,16.759,42.39958217327487
mp-bas,VSe2,Trigonal,164,17.979,11.236,27.896650392033507
mp-kmq,Ta2C,Trigonal,164,260.465,145.673,368.34888218016374
mp-kyg,SrGe2,Trigonal,164,46.921,25.775,65.35744980124655
mp-bqxfu,Ni2H,Trigonal,164,201.621,75.077,200.3616471350413
mp-bqzgp,CrS2,Trigonal,164,33.052,19.441,48.76240872871995
mp-lil,BaSi2,Trigonal,164,50.296,36.821,88.79457641349109
mp-lkp,Ag2O,Trigonal,164,94.131,21.968,61.14721752129871
mp-bec,Te2Pd,Trigonal,164,53.053,17.97,48.440750469996445
mp-lrn,Mg3As2,Trigonal,164,53.676,24.175,63.05813458745268
mp-maw,UO3,Trigonal,164,168.947,43.216,119.46202296852873
mp-mka,CaSi2,Trigonal,164,60.404,34.761,87.49858082260283
mp-odt,VS2,Trigonal,164,20.333,17.569,40.92091300529477
mp-bll,U2N3,Trigonal,164,198.589,92.753,240.77373155899608
mp-cecin,HfS2,Trigonal,164,14.334,12.581,29.200015940125578
mp-cecip,HfSe2,Trigonal,164,16.811,12.019,29.117765339780956
mp-chx,Mg3Au,Trigonal,165,57.636,34.45,86.17965933313401
mp-bjbu,YH3,Trigonal,165,78.381,54.412,132.5613536219371
mp-biv,LaF3,Trigonal,165,102.112,39.391,104.70875612260538
mp-cfkhc,SrC2,Trigonal,166,53.228,19.779,52.79734267230572
mp-peu,NiTe,Trigonal,166,34.863,15.722,41.002441788365154
mp-chcym,MgCd,Trigonal,166,40.284,14.201,38.12323869888118
mp-chdns,CaMg,Trigonal,166,21.47,8.429,22.360763739205645
mp-ckshq,DyNi3,Trigonal,166,130.886,52.85,139.7414320281566
mp-qrp,Be3Nb,Trigonal,166,153.691,115.023,276.1727195415347
mp-rht,TePt,Trigonal,166,46.872,19.788,52.04064876187626
mp-buf,Sb2Te3,Trigonal,166,19.094,13.921,33.59785635436709
mp-crqlo,IrRu,Trigonal,166,326.804,201.523,501.4884087771324
mp-sel,Li5Tl2,Trigonal,166,24.305,16.195,39.75508107956459
mp-bvx,Sr2N,Trigonal,166,24.67,9.666,25.648238204503087
mp-spq,Dy2C,Trigonal,166,57.181,26.988,69.95787787297702
mp-ssm,Ti2Be17,Trigonal,166,126.701,144.287,313.7583948645093
mp-bzi,Y2C,Trigonal,166,59.24,31.783,80.88392185314768
mp-bzu,B6O,Trigonal,166,228.689,207.712,478.3207550322843
mp-dbddi,SnO2,Trigonal,166,42.723,28.477,69.90032199353958
mp-dctjr,SbO2,Trigonal,166,36.048,15.287,40.181088899871185
mp-cjf,Al4C3,Trigonal,166,159.382,112.747,273.7019751223995
mp-clc,Ho2C,Trigonal,166,60.21,28.625,74.12774485675372
mp-ykw,Li3Al2,Trigonal,166,38.92,32.272,75.85106661656556
mp-bacl,Y2Zn17,Trigonal,166,80.602,51.513,127.39869368844157
mp-bdre,InP3,Trigonal,166,47.968,22.314,57.955345197271065
mp-bgoh,NaN3,Trigonal,166,25.56,10.625,27.99581925433824
mp-bhwb,CdCl2,Trigonal,166,8.647,5.888,14.396362562443056
mp-biis,MgCl2,Trigonal,166,8.66,6.263,15.13935489873771
mp-bijl,FeCl2,Trigonal,166,9.771,6.402,15.763278118437631
mp-dqh,YAl3,Trigonal,166,71.776,44.156,109.92612070108368
mp-blqf,TiO2,Trigonal,166,43.04,30.243,73.51096854351387
mp-dzi,Ca2N,Trigonal,166,33.874,15.634,40.64845333287849
mp-dzv,CaSi2,Trigonal,166,62.216,43.161,105.16447564716786
mp-dzw,CaSi2,Trigonal,166,61.714,41.833,102.36870077321291
mp-bons,NiCl2,Trigonal,166,17.245,9.563,24.21327637117035
mp-bowz,NiBr2,Trigonal,166,11.992,7.055,17.69496502521438
mp-boxa,NiI2,Trigonal,166,20.29,6.877,18.536746571803913
mp-boyp,LaBr,Trigonal,166,12.532,4.615,12.331302740991683
mp-bozp,Li2Si,Trigonal,166,32.884,23.382,56.70586223511481
mp-bphv,Ti8C5,Trigonal,166,168.542,97.532,245.28257122677638
mp-bqad,B6P,Trigonal,166,198.464,173.797,403.58355394057895
mp-ghqrh,DyMn2,Trigonal,166,74.233,34.868,90.44328736212324
mp-btav,Be17Nb2,Trigonal,166,140.051,150.117,331.8012936030301
mp-btni,Li5Sn2,Trigonal,166,29.691,21.604,52.16078567362686
mp-bypm,Bi2Te3,Trigonal,166,14.402,11.629,27.48842385337832
mp-rz,Th3N4,Trigonal,166,147.036,48.498,131.0820687491575
mp-uo,B13N2,Trigonal,166,246.599,159.851,394.3452002794426
mp-bevnx,Bi2Se3,Trigonal,166,10.752,7.588,18.428761770906533
mp-bfpbp,TaS2,Trigonal,166,21.258,14.506,35.453716555952994
mp-bftck,TiS,Trigonal,166,128.998,77.715,194.15530176949449
mp-bghlg,CaGe2,Trigonal,166,49.42,36.036,86.96928896991797
mp-bghvo,TaSe2,Trigonal,166,19.6,11.97,29.83620178041543
mp-bghwl,Co7Mo6,Trigonal,166,317.793,121.476,323.24174164143074
mp-bgipd,CdI2,Trigonal,166,8.158,4.29,10.950506883604506
mp-bgkae,YNi3,Trigonal,166,134.026,48.827,130.61906059591266
mp-bgldo,ZnBr2,Trigonal,166,9.581,4.594,11.882773674895763
mp-bgmxh,Tb2Fe17,Trigonal,166,101.385,55.69,141.21406675096222
mp-we,B13C2,Trigonal,166,223.146,155.259,378.0889506400532
mp-bkrdf,CuPt,Trigonal,166,190.686,68.019,182.37249472485345
mp-baq,Tb2C,Trigonal,166,56.514,23.825,62.668472128129416
mp-bnqry,B4C,Trigonal,166,226.426,176.541,420.3707234754077
mp-ksw,Nb6Co7,Trigonal,166,220.75,89.264,235.98396303994335
mp-kuf,HfNi3,Trigonal,166,176.825,75.969,199.35718025901815
mp-bqxag,Rb2O,Trigonal,166,5.74,3.671,9.077777990522236
mp-leb,SnP3,Trigonal,166,43.262,25.39,63.70701410011858
mp-lec,GeP3,Trigonal,166,48.704,32.336,79.42948587823905
mp-bqyas,Hf3N4,Trigonal,166,212.613,66.114,179.71407599370983
mp-lvg,Cs2O,Trigonal,166,6.526,3.041,7.89646288518502
mp-lzp,WN2,Trigonal,166,311.395,69.541,194.16900354778096
mp-bxcdc,ErAl3,Trigonal,166,76.785,56.514,136.14174905618944
mp-mtw,Te4Pt3,Trigonal,166,47.518,24.441,62.59161616814874
mp-bxgdp,YCo,Trigonal,166,53.429,22.17,58.42849750900212
mp-bio,HoAl3,Trigonal,166,76.254,56.689,136.29262834602085
mp-oea,Li3Ga2,Trigonal,166,38.44,28.594,68.73813694289646
mp-cdrmm,SiB4,Trigonal,166,129.631,90.777,220.79266909125025
mp-ceiqe,Na2Cl,Trigonal,166,13.51,6.628,17.089327791679036
mp-cewfb,RuC,Trigonal,166,284.565,160.065,404.37585870916195
mp-boh,Ca3N2,Trigonal,167,70.981,33.499,86.83638613142242
mp-brz,Al2O3,Trigonal,167,231.003,128.563,325.3347828321802
mp-ugd,PdF3,Trigonal,167,27.619,18.473,45.31582041843482
mp-utk,Zr3O,Trigonal,167,131.559,52.09,138.04997860182152
mp-dbo,RhF3,Trigonal,167,55.159,28.711,73.39810102066039
mp-bhap,In2O3,Trigonal,167,149.39,52.286,140.4699910881276
mp-bhcp,In2S3,Trigonal,167,70.535,20.656,56.45691114737299
mp-due,TeO3,Trigonal,167,89.234,77.836,180.90791350300108
mp-bpmq,TmCl3,Trigonal,167,12.303,11.563,26.4139359011388
mp-ees,Lu2S3,Trigonal,167,76.765,26.429,71.12463059550333
mp-rq,Ti2O3,Trigonal,167,214.394,74.827,201.08680885894188
mp-sa,AlF3,Trigonal,167,39.119,49.835,104.94197261232594
mp-bgmtp,Al5Mo,Trigonal,167,117.921,82.612,200.9171168559152
mp-bqynf,Y2O3,Trigonal,167,135.891,53.717,142.38911034699493
mp-bqzin,Sc2O3,Trigonal,167,172.651,70.819,186.90212938285114
mp-lfu,Ni3C,Trigonal,167,198.324,58.221,159.09477663722666
mp-bxbdb,Ir2S3,Trigonal,167,165.426,71.569,187.6462507435982
mp-bxfct,Yb3N2,Trigonal,167,74.904,29.069,77.21799261568044
mp-bxheg,B2S3,Trigonal,167,20.061,14.14,34.349566890464594
mp-bxhex,Zr3N2,Trigonal,167,195.246,102.252,261.16461856713033
mp-dyc,Al2S3,Hexagonal,169,32.575,21.529,52.92706806480286
mp-cgixh,SmO3,Hexagonal,176,67.594,23.832,63.97707940374382
mp-cgjcv,HoO3,Hexagonal,176,71.744,29.665,78.21480802133142
mp-umu,Ge3N4,Hexagonal,176,174.776,82.389,213.60301223799567
mp-bhwq,LaCl3,Hexagonal,176,31.744,16.294,41.74031727130894
mp-bihr,NdCl3,Hexagonal,176,34.633,17.807,45.60488783626115
mp-biiq,UCl3,Hexagonal,176,31.673,16.753,42.725905602476466
mp-bikl,UBr3,Hexagonal,176,25.058,13.099,33.46564269935314
mp-bikt,LaBr3,Hexagonal,176,25.473,13.286,33.954723839250875
mp-bikv,GdCl3,Hexagonal,176,29.009,15.213,38.84805607394367
mp-bpjv,AcCl3,Hexagonal,176,27.477,14.801,37.64381780689485
mp-bpjw,AcBr3,Hexagonal,176,24.348,12.791,32.65471441719579
mp-bgims,TbCl3,Hexagonal,176,26.359,14.238,36.196699115897765
mp-bma,Si3N4,Hexagonal,176,234.569,122.364,312.71550513696764
mp-pvz,VSi2,Hexagonal,180,175.432,148.53,347.5151144739533
mp-bva,CrSi2,Hexagonal,180,194.579,156.409,370.0690962310138
mp-def,Mg2Ni,Hexagonal,180,71.061,33.4,86.62777482632622
mp-dri,NbSi2,Hexagonal,180,175.204,142.4,336.1338514876978
mp-bslr,Sn2Mo,Hexagonal,180,117.067,70.54,176.2246393402586
mp-nz,NbGe2,Hexagonal,180,144.24,108.792,260.8057120063821
mp-tx,TaSi2,Hexagonal,180,184.701,145.738,346.16661361937935
mp-kgg,SiO2,Hexagonal,180,134.073,35.048,96.7164559319592
mp-les,TaGe2,Hexagonal,180,148.824,108.018,260.92632416815457
mp-nfu,Si2Mo,Hexagonal,180,207.258,149.363,361.2977848112593
mp-nfv,Si2W,Hexagonal,180,220.371,147.913,362.6108697458426
mp-qok,VSi2,Hexagonal,181,174.655,148.681,347.4501007885277
mp-qol,CrSi2,Hexagonal,181,194.648,156.37,370.0240301277566
mp-qom,TaSi2,Hexagonal,181,184.679,145.713,346.1110112797428
mp-rxo,NbSi2,Hexagonal,181,175.016,142.771,336.7452618508907
mp-fwfix,WN2,Hexagonal,181,100.955,24.65,68.38424728638384
mp-ghkro,CdTe,Hexagonal,181,39.084,15.381,40.79195250050893
mp-bnd,Zr3O,Hexagonal,182,132.953,59.206,154.66044745178084
mp-tly,Fe3C,Hexagonal,182,201.825,90.624,236.4774251938302
mp-daf,Ni3N,Hexagonal,182,201.929,73.848,197.47140027809047
mp-bswv,Al5W,Hexagonal,182,126.403,102.302,241.70064101131643
mp-bgjdn,Al5Mo,Hexagonal,182,119.966,97.442,230.04229402195304
mp-oll,ReO3,Hexagonal,182,158.374,111.219,270.36789368984944
mp-bahz,Mg3Au,Hexagonal,185,57.457,34.638,86.52647997913134
mp-bbrn,Mg3Pt,Hexagonal,185,69.596,23.933,64.41519936748296
mp-mw,LaF3,Hexagonal,185,101.191,39.28,104.33930086655215
mp-bewkr,Mg3Rh,Hexagonal,185,65.593,26.555,70.19262196978516
mp-bgiwh,Mg3Ir,Hexagonal,185,75.799,31.014,81.87527494572599
mp-lbb,Cu3P,Hexagonal,185,124.032,41.154,111.16688772413794
mp-cfdzq,WS,Hexagonal,186,176.693,76.921,201.5199675074135
mp-cfjyt,BP,Hexagonal,186,162.161,162.369,365.21313748127466
mp-cfxzk,MgSe,Hexagonal,186,44.971,16.917,45.09628968583284
mp-cfyad,GaSb,Hexagonal,186,44.722,29.749,73.0495256809932
mp-cfybs,AlSb,Hexagonal,186,49.329,28.721,72.15861127396609
mp-pfl,ZnS,Hexagonal,186,69.067,33.634,86.81045239271701
mp-bnz,MgTe,Hexagonal,186,33.954,12.887,34.31913813628006
mp-bpe,CdSe,Hexagonal,186,44.379,15.155,40.818612635880555
mp-rio,SiC,Hexagonal,186,213.331,188.708,437.2088330193882
mp-sxn,CdTe,Hexagonal,186,34.727,13.496,35.844560347391585
mp-tkp,CdO,Hexagonal,186,91.875,19.754,55.298747541294404
mp-bbaf,Fe7C3,Hexagonal,186,240.169,93.407,248.06207049762014
mp-deb,ZnO,Hexagonal,186,128.167,42.921,115.83283561211168
mp-bgwb,InN,Hexagonal,186,121.971,53.983,141.1283852120525
mp-bhwo,AgI,Hexagonal,186,25.5,6.592,18.20709574928994
mp-bjqr,CuH,Hexagonal,186,105.717,34.971,94.49356434133622
mp-bkmv,CrH,Hexagonal,186,206.427,74.701,199.98030200062826
mp-dtu,BeO,Hexagonal,186,208.037,156.717,375.7887918478846
mp-duo,MnS,Hexagonal,186,60.391,16.136,44.449176591032334
mp-bpik,CdBr2,Hexagonal,186,7.509,3.7,9.53405650665345
mp-eed,MoN,Hexagonal,186,332.975,196.526,492.65440712333674
mp-oq,ZnSe,Hexagonal,186,56.264,27.422,70.76886803184279
mp-bfxhc,ZnS,Hexagonal,186,69.08,34.087,87.81681966791948
mp-bfygw,ZnS,Hexagonal,186,68.976,34.258,88.17600636852885
mp-bghew,LaN,Hexagonal,186,86.477,22.739,62.71965314172307
mp-bghnd,SiC,Hexagonal,186,213.059,189.705,438.8624899020608
mp-bghox,SiC,Hexagonal,186,213.188,187.138,434.3284321266914
mp-bgkfy,CuI,Hexagonal,186,38.568,15.146,40.17851243408483
mp-bgmpb,LiI,Hexagonal,186,14.86,6.203,16.335963216036863
mp-zl,AlN,Hexagonal,186,194.62,122.306,303.3688162273459
mp-zw,CdS,Hexagonal,186,53.116,17.29,46.79276690179916
mp-koi,DySe,Hexagonal,186,44.941,4.976,14.39665336661922
mp-koq,SiC,Hexagonal,186,213.563,186.481,433.3196032580969
mp-lhn,SiC,Hexagonal,186,213.119,188.196,436.1935609151317
mp-bsfhf,MgO,Hexagonal,186,115.543,50.224,131.60360306713068
mp-lsw,TaSe2,Hexagonal,186,22.817,13.913,34.68841106551407
mp-bey,GaN,Hexagonal,186,172.144,104.855,261.47566596436104
mp-bxhdw,AcN,Hexagonal,186,77.703,18.975,52.64011133193697
mp-ndo,AlP,Hexagonal,186,82.62,47.048,118.62666268802474
mp-ndp,AlAs,Hexagonal,186,67.203,39.618,99.33397209267619
mp-ndq,GaP,Hexagonal,186,76.25,51.856,126.81902739071866
mp-ndr,GaAs,Hexagonal,186,60.75,41.228,100.86634478561648
mp-nds,ZnTe,Hexagonal,186,42.546,22.507,57.39948315295215
mp-cdaeq,InP,Hexagonal,186,59.233,32.374,82.15469040762021
mp-cdhtf,ZnN,Hexagonal,186,130.313,30.673,85.32445907848923
mp-cdhya,WN,Hexagonal,186,298.554,66.458,185.60233192117408
mp-cdksz,NiN,Hexagonal,186,210.715,32.427,92.53428935465232
mp-cdlhr,RuI,Hexagonal,186,41.961,6.575,18.745883034622295
mp-cdlnu,ReBr,Hexagonal,186,145.813,54.122,144.48912886498317
mp-cdofg,LiBr,Hexagonal,186,19.461,8.428,22.09450198320636
mp-cdrny,SiGe,Hexagonal,186,73.122,55.607,133.0852683208897
mp-cearu,BAs,Hexagonal,186,132.161,126.051,286.9310626657787
mp-cease,BC,Hexagonal,186,274.047,92.848,250.27890248298067
mp-oso,ZnS,Hexagonal,186,69.008,33.915,87.42319375443577
mp-cewit,NbN,Hexagonal,186,224.464,53.216,147.95554964437494
mp-cewol,MoN,Hexagonal,186,258.81,59.475,165.72998456762429
mp-cewpw,MnSe,Hexagonal,186,51.3,13.695,37.72774545780006
mp-cezzv,IrC,Hexagonal,187,323.532,82.577,228.30695211138152
mp-cfans,TcB,Hexagonal,187,302.964,177.149,444.7603052960247
mp-ovu,RuC,Hexagonal,187,337.414,77.299,215.44474514864515
mp-cfkhy,ReN2,Hexagonal,187,332.601,140.635,369.7856841698889
mp-cfkjj,OsC2,Hexagonal,187,357.547,194.292,493.4883656168085
mp-cflvy,ZrN,Hexagonal,187,217.333,121.807,307.8990426269633
mp-cfxxj,Tc3N,Hexagonal,187,331.138,180.392,458.00738355741913
mp-cfxyy,TiS,Hexagonal,187,139.693,101.235,244.61457445888442
mp-cggrs,MoS2,Hexagonal,187,10.685,8.675,20.481988092315248
mp-cggsc,MoSe2,Hexagonal,187,9.262,6.3629999999999995,15.532137222173418
mp-cggse,WSe2,Hexagonal,187,9.224,7.663,18.003441573510685
mp-cgjdb,WS2,Hexagonal,187,19.263,14.933,35.59981038750309
mp-cgjlv,MoSe2,Hexagonal,187,13.904,9.713,23.635312941176466
mp-cgjos,MoS2,Hexagonal,187,17.107,11.985,29.1480516064828
mp-chcop,CeMg,Hexagonal,187,35.967,36.589,81.9708565783099
mp-chcoy,Ca2Mg,Hexagonal,187,19.546,5.786,15.799056314416987
mp-chcwh,CaZn,Hexagonal,187,26.262,9.932,26.46033111657161
mp-chcyb,CaMg,Hexagonal,187,21.589,6.514,17.75615821888021
mp-chdah,MgAl,Hexagonal,187,48.143,7.203,20.5825040954416
mp-chdbr,Mg3Cd,Hexagonal,187,38.741,13.855,37.13778652039546
mp-chdoj,Ca5Mg,Hexagonal,187,18.063,7.009,18.618780074512237
mp-chdqg,Mg5Cd,Hexagonal,187,38.04,17.452,45.41138479311708
mp-rmd,LiPt,Hexagonal,187,113.442,51.982,135.28268196417102
mp-crgvr,TcRu,Hexagonal,187,306.075,167.325,424.60134897056787
mp-crjzz,RuRh,Hexagonal,187,282.182,137.973,355.91133718496036
mp-crqdr,IrOs,Hexagonal,187,374.508,195.756,500.1286250318355
mp-thk,MoN,Hexagonal,187,348.484,164.499,426.4035697677013
mp-chf,ZrTe,Hexagonal,187,94.136,55.771,139.7204726017878
mp-cim,GaSe,Hexagonal,187,14.135,9.134,22.545680164535593
mp-cuc,NbS2,Hexagonal,187,10.712,6.562,16.347855082950026
mp-il,MoP,Hexagonal,187,219.328,133.065,332.0450729095163
mp-dih,NbS,Hexagonal,187,178.147,98.782,250.1163927810581
mp-ebo,LiPd,Hexagonal,187,79.812,34.789,91.12669162913667
mp-kt,LiIr,Hexagonal,187,141.786,68.118,176.1455647934246
mp-bgibt,C3N4,Hexagonal,187,90.698,70.15,167.31391141992262
mp-bgmwr,NbSe2,Hexagonal,187,20.549,13.684,33.59483670733164
mp-bgnby,NbSe2,Hexagonal,187,27.022,17.146,42.45787590111188
mp-biekn,LiRh,Hexagonal,187,106.321,41.679,110.58661118505334
mp-bikuu,BN,Hexagonal,187,102.403,73.415,177.7640038594519
mp-kos,OsC,Hexagonal,187,384.511,61.473,175.08835538836846
mp-bqzgq,TiO,Hexagonal,187,234.957,165.923,402.9230022244067
mp-lmm,AlSn,Hexagonal,187,49.054,28.861,72.38671904239787
mp-bxgfu,YTe,Hexagonal,187,59.171,38.592,95.10073847435274
mp-bxizi,TbTe,Hexagonal,187,60.402,39.055,96.39019613095373
mp-cdhub,YZr,Hexagonal,187,62.206,36.189,90.93321307678845
mp-cdixg,SnPb,Hexagonal,187,44.231,14.712,39.73093346901394
mp-cdize,SmBr,Hexagonal,187,46.102,32.427,78.8046012545905
mp-cdjdd,SiMo,Hexagonal,187,199.027,101.53,260.32355887611277
mp-cdjrx,ScNb,Hexagonal,187,102.567,32.331,87.77068950275269
mp-cdkdq,FeRe,Hexagonal,187,319.664,156.612,403.87894388331335
mp-cdllt,IrRu,Hexagonal,187,329.122,156.327,404.8777897967374
mp-cdofs,NaCu,Hexagonal,187,33.222,11.216,30.244418102126584
mp-cdqtt,HgOs,Hexagonal,187,188.781,64.102,172.75282849098653
mp-cdscs,TbZr,Hexagonal,187,59.661,32.407,82.31660079947018
mp-cdsgh,TmZr,Hexagonal,187,67.086,40.177,100.47353531178165
mp-cdvwk,YbTa,Hexagonal,187,73.373,28.309,75.24935318482619
mp-cdxoe,TbSc,Hexagonal,187,45.098,28.229,70.0674704965051
mp-cdxvf,NbTe,Hexagonal,187,118.463,64.213,163.1588542738118
mp-cdyvj,HfZr,Hexagonal,187,101.368,45.497,118.72809020569161
mp-bmd,WN,Hexagonal,187,375.17,165.988,433.96386338964516
mp-cggxj,SiPt2,Hexagonal,189,205.034,28.066,80.5238416650082
mp-rdo,Lu8Te,Hexagonal,189,49.878,35.782,86.63012557708072
mp-bxf,TaN,Hexagonal,189,306.305,181.327,454.32941172487506
mp-bzt,CaP,Hexagonal,189,52.775,33.528,83.0060608903692
mp-djyvo,Li2Sb,Hexagonal,189,33.938,23.465,57.209879788312485
mp-ctd,Mn2P,Hexagonal,189,193.549,101.56,259.32235811124775
mp-bdrp,GePt2,Hexagonal,189,176.427,32.814,92.69514975582419
mp-bfid,Ni2P,Hexagonal,189,191.012,38.833,109.10525122861266
mp-dma,Na2O2,Hexagonal,189,49.866,29.996,74.95809895653528
mp-lw,U3O8,Hexagonal,189,163.668,48.125,131.48745940210972
mp-btqd,Th3Pd5,Hexagonal,189,79.566,21.272,58.59426690772011
mp-nl,Yb3Si5,Hexagonal,189,52.419,41.818,99.10094023860353
mp-pt,NaS,Hexagonal,189,26.857,13.293,34.23134438123242
mp-qh,GePd2,Hexagonal,189,152.76,42.417,116.47081624215842
mp-bgjau,BaI2,Hexagonal,189,21.274,7.604,20.383438299778792
mp-wg,GaAg2,Hexagonal,189,82.611,21.947,60.48473776039735
mp-bnrei,SiPd2,Hexagonal,189,177.478,48.503,133.36031085298407
mp-bdn,Yb3Ge5,Hexagonal,189,43.833,34.758,82.4742821415038
mp-bdy,Fe2P,Hexagonal,189,219.035,94.973,248.9392051023963
mp-ltb,SrP,Hexagonal,189,44.749,26.944,67.32046766879044
mp-bxgmm,Li5Mg,Hexagonal,189,17.412,9.799,24.753472910453777
mp-bie,CaAs,Hexagonal,189,46.134,28.543,70.98879785558118
mp-nkp,RbSe,Hexagonal,189,12.853,6.659,17.035099805387233
mp-cdjhi,MgCd2,Hexagonal,189,42.98,4.888,14.128404818124755
mp-cdpjf,MgPd5,Hexagonal,189,140.05,44.646,121.07257958330105
mp-bpxw,Li3P7,Orthorhombic,19,24.186,11.791,30.428269855007176
mp-bfywm,TeF4,Orthorhombic,19,11.814,7.157,17.86368651846287
mp-bgjqe,Ag2Se,Orthorhombic,19,56.451,12.175,34.07528494226786
mp-lae,NaP,Orthorhombic,19,29.048,12.804,33.49116868771761
mp-lgd,GeF2,Orthorhombic,19,8.284,6.065,14.625679723129672
mp-bsfgq,Nb2O5,Orthorhombic,19,55.283,25.761,66.89268966651011
mp-mkf,TeO2,Orthorhombic,19,21.082,23.269,51.031769311680044
mp-btiw,Mg2Ga,Hexagonal,190,45.747,25.13,63.72196383590667
mp-cezqj,LiC6,Hexagonal,191,150.185,115.671,276.12374248974794
mp-cfjzc,ZrTi2,Hexagonal,191,106.1,49.525,128.5704411065045
mp-cflox,CaC2,Hexagonal,191,185.823,165.657,383.122618186872
mp-cflql,CaB2,Hexagonal,191,121.439,104.665,243.91920460699984
mp-pab,SmB2,Hexagonal,191,140.817,106.77,255.68766131729467
mp-pae,B2W,Hexagonal,191,321.856,144.049,376.04625244205886
mp-pbu,PuSi2,Hexagonal,191,94.62,49.752,126.99725477500809
mp-cgcvr,LiC12,Hexagonal,191,140.283,106.231,254.4616194069211
mp-bnl,ThAu2,Hexagonal,191,107.422,37.338,100.38348773651016
mp-cgiig,ErPt5,Hexagonal,191,189.776,76.477,202.2615067520382
mp-cgipr,Hf4Al3,Hexagonal,191,116.342,87.932,210.71055500986364
mp-bnx,PrPt5,Hexagonal,191,181.498,71.476,189.546178274916
mp-bqq,TaB2,Hexagonal,191,303.164,199.428,490.6886986689751
mp-qrj,BaHg2,Hexagonal,191,23.258,5.763,15.969957583700701
mp-qrt,ScBe5,Hexagonal,191,108.626,103.678,235.96257030980826
mp-qrw,TiBe12,Hexagonal,191,122.106,39.713,107.486276175957
mp-qrz,ZrBe5,Hexagonal,191,126.39,114.539,263.89889163454586
mp-qsd,CaHg2,Hexagonal,191,38.37,17.551,45.68702806401279
mp-qsk,DyCd2,Hexagonal,191,57.069,32.037,80.9611893930448
mp-qsr,HoCd2,Hexagonal,191,57.077,33.057,83.12357799283365
mp-qvb,TbCu5,Hexagonal,191,109.637,39.212,105.10556090219845
mp-qvf,DyHg2,Hexagonal,191,63.191,28.091,73.39700377186857
mp-qvh,ErHg2,Hexagonal,191,66.229,27.641,72.79577472075925
mp-qvu,NdFe5,Hexagonal,191,102.413,56.671,143.53720454782777
mp-brw,NdCu5,Hexagonal,191,101.881,36.16,97.00369113202632
mp-qyv,HoHg2,Hexagonal,191,63.968,27.217,71.50913652274315
mp-qza,NaHg2,Hexagonal,191,18.769,8.158,21.376832668890096