material_id,formula_pretty,symmetry.crystal_system,symmetry.number,bulk_modulus.vrh,shear_modulus.vrh,youngs_modulus_vrh
mp-fee,Na2Ti3O7,Monoclinic,11,97.103,43.32,113.13579408837847
mp-gia,K2S2O5,Monoclinic,11,20.378,10.521,26.928650366338704
mp-gyl,Ag2CO3,Monoclinic,11,47.972,14.143,38.632485109990576
mp-iax,BaTeO3,Monoclinic,11,43.028,20.15,52.28786871624428
mp-bfayc,PdSeO3,Monoclinic,11,17.966,11.723,28.886160863138326
mp-bfuka,CaAl2O4,Monoclinic,11,152.027,89.116,223.64822841651733
mp-bgnop,Ba(BiPd)2,Monoclinic,11,59.927,20.217,54.52003235532355
mp-itq,Hf2NiP,Monoclinic,11,180.029,94.851,242.04469745234968
mp-bkcvx,NaHS,Monoclinic,11,21.406,10.172,26.343278505175434
mp-bkcwq,KHS,Monoclinic,11,14.213,8.001,20.21058287914692
mp-nxf,TaNi2Te3,Monoclinic,11,21.521,10.537,27.17577886817577
mp-cesxu,TlCuO2,Monoclinic,11,21.672,9.227,24.240775507455247
mp-cesyg,CuBiO2,Monoclinic,11,45.335,19.29,50.68166618371487
mp-ceszi,BiAuO2,Monoclinic,11,59.145,20.275,54.58744562743412
mp-hbv,Li2B4O7,Tetragonal,110,41.92,40.743,92.31977225635575
mp-cgimw,Cu2WSe4,Tetragonal,111,30.602,11.26,30.089522053829587
mp-bgihk,Cd(InSe2)2,Tetragonal,111,27.708,15.224,38.60209997152967
mp-bgjde,Cu2HgI4,Tetragonal,111,17.315,9.009,23.03240993207993
mp-bgloy,Ag2HgI4,Tetragonal,111,12.21,5.58,14.527036247334756
mp-nhg,Cu2WS4,Tetragonal,111,9.511,8.382,19.436294676960582
mp-bpls,AlCuCl4,Tetragonal,112,10.74,6.127,15.444123921036846
mp-brli,GaCuCl4,Tetragonal,112,10.789,5.407,13.899113331921429
mp-cjjoq,TmAgTe2,Tetragonal,113,42.537,21.354,54.8787693887826
mp-tch,YAgTe2,Tetragonal,113,39.447,19.888,51.079711377496764
mp-gxu,BNF8,Tetragonal,113,16.052,7.666,19.839699186700585
mp-binav,NbBr3O,Tetragonal,113,6.824,4.154,10.359866157719482
mp-bqpa,Na3PS4,Tetragonal,114,22.958,10.928,28.29459432094434
mp-cfiwl,GaBN2,Tetragonal,115,247.284,173.186,421.22309829318567
mp-cfjxo,B2AsP,Tetragonal,115,146.701,141.361,320.98324324291787
mp-cfjyq,AlGaN2,Tetragonal,115,183.528,110.883,276.88640100866706
mp-cfjyr,AlBN2,Tetragonal,115,257.912,177.148,432.4369268848776
mp-cfxfy,ZnCdSe2,Tetragonal,115,50.014,20.132,53.25100562953213
mp-cfyax,CrGaP2,Tetragonal,115,79.184,20.698,57.117343225556624
mp-cfybb,CrCdTe2,Tetragonal,115,38.574,8.827,24.60424637692796
mp-cfybh,CaZnSe2,Tetragonal,115,41.321,7.128,20.221256928393252
mp-cfyzd,Hf2GaSb3,Tetragonal,115,93.197,62.432,153.10746919359224
mp-ddkuv,Zn(CoN)2,Tetragonal,115,136.422,50.155,134.03873286158014
mp-yhp,Zr2CuSb3,Tetragonal,115,95.97,46.996,121.20372606044684
mp-bdmm,Hf2CuSb3,Tetragonal,115,101.457,49.807,128.40836864796796
mp-bztx,LiAlO2,Tetragonal,115,153.169,123.673,292.33826199972566
mp-bcuga,Ti2CuSb3,Tetragonal,115,90.931,51.886,130.7827509447793
mp-bkkwf,FeCuS2,Tetragonal,115,43.783,19.144,50.126157150166456
mp-bqwdo,La2Th2O7,Tetragonal,115,128.506,58.428,152.21476736359827
mp-cdhlo,ZnCdS2,Tetragonal,115,60.274,24.036,63.64756453738687
mp-bgjbo,Mg2B24C,Tetragonal,118,208.857,195.607,447.2085373130879
mp-cptjk,Mg(BH4)2,Tetragonal,119,14.053,4.908,13.188627191025558
mp-bzjz,Ho2CdS4,Tetragonal,119,64.932,30.307,78.67974712020721
mp-bgnip,SrMgIn3,Tetragonal,119,35.493,22.431,55.58367346986269
mp-bqyqh,SnBiO4,Tetragonal,119,118.856,31.907,87.85905277817105
mp-bqzic,TiNbO4,Tetragonal,119,162.315,27.544,78.20816235138166
mp-bsaua,TiSnO4,Tetragonal,119,163.816,47.131,129.01971124756074
mp-cgimx,Cr2NiSe4,Monoclinic,12,63.633,36.52,91.96634599571716
mp-cgint,Ti(MoS2)2,Monoclinic,12,104.193,65.901,163.27892104470513
mp-cgioa,Mn(CrSe2)2,Monoclinic,12,48.783,29.443,73.53497782037864
mp-cgiob,Tm2Cr2C3,Monoclinic,12,166.232,74.225,193.82625492868996
mp-cgioc,V2FeSe4,Monoclinic,12,64.874,46.863,113.30605361823717
mp-cgiok,Co2NiSe4,Monoclinic,12,100.763,41.32,109.05344283764396
mp-cgiox,Ti2VSe4,Monoclinic,12,67.424,46.399,113.22452390507941
mp-cgipb,Ti(CrTe2)2,Monoclinic,12,47.988,32.833,80.2067344807887
mp-cgipn,Ti2VTe4,Monoclinic,12,46.041,33.076,80.05694568309394
mp-cgips,V(CrS2)2,Monoclinic,12,92.785,58.933,145.9076090610991
mp-cgiqa,V2CrSe4,Monoclinic,12,76.515,49.825,122.81647591008341
mp-cgirf,Ti2NiS4,Monoclinic,12,91.139,53.452,134.13341874573607
mp-cgirg,U2W2C3,Monoclinic,12,181.898,94.657,241.99426700981178
mp-cgiri,Tb2Cr2C3,Monoclinic,12,156.439,66.367,174.4339648318785
mp-cgiru,V2CrTe4,Monoclinic,12,53.889,29.918,75.73797488321111
mp-cgirx,Ti2NiSe4,Monoclinic,12,69.621,41.997,104.89858181057163
mp-cgish,Ti(NbSe2)2,Monoclinic,12,82.772,49.134,123.05353851739788
mp-cgiti,Co(NiSe2)2,Monoclinic,12,95.313,34.882,93.26812332733827
mp-cgitm,V(CoSe2)2,Monoclinic,12,76.389,53.225,129.5795940571971
mp-cgitn,Dy2Cr2C3,Monoclinic,12,160.099,68.541,179.94400903545306
mp-cgiuj,Ti2CrTe4,Monoclinic,12,49.615,34.742,84.50227396275335
mp-cgivk,Y2Cr2C3,Monoclinic,12,155.926,68.605,179.4906420785148
mp-cgivq,V2FeTe4,Monoclinic,12,49.149,32.385,79.65886652542373
mp-cgosj,Y4Se3N2,Monoclinic,12,67.613,37.741,95.46113599218556
mp-cgpjc,Rb2CN2,Monoclinic,12,25.925,11.927,31.023469655080156
mp-pki,K2CN2,Monoclinic,12,31.342,14.596,37.90402025372392
mp-ciyzo,CeGaCo,Monoclinic,12,87.707,41.614,107.79382703660556
mp-ckisd,Tm3(CuSn)4,Monoclinic,12,85.104,48.429,122.12218483510625
mp-qgn,RbCu3S2,Monoclinic,12,42.157,19.923,51.634938583548504
mp-ckqye,Zr5N5O2,Monoclinic,12,222.105,117.091,298.7703298098304
mp-ckurx,Bi2Pd3Se2,Monoclinic,12,50.704,11.3,31.555802511443467
mp-rts,Er2Al3Si2,Monoclinic,12,89.518,66.418,159.74606449494289
mp-rtt,Tm2Al3Si2,Monoclinic,12,90.245,66.441,160.04612548046123
mp-syl,BaEr2F8,Monoclinic,12,85.459,36.511,95.87877257176805
mp-tqd,Ce2Mo2C3,Monoclinic,12,136.107,81.553,203.9287807456611
mp-ucl,Sc2Si2Ru,Monoclinic,12,121.632,68.945,173.9652641405492
mp-ulx,TlCu3S2,Monoclinic,12,41.713,15.73,41.92057450539154
mp-daxfe,Ca2Sn3O8,Monoclinic,12,107.769,46.162,121.18335557786986
mp-dbrue,Ca2CoN2,Monoclinic,12,71.914,37.282,95.36597212912608
mp-dbusv,Mg2TiN2,Monoclinic,12,108.953,72.905,178.82792393762318
mp-dbvah,Mg2MnN2,Monoclinic,12,109.74,62.484,157.54995465964097
mp-wuf,Ti7Al2O15,Monoclinic,12,196.424,85.772,224.62108240648016
mp-xmz,Li2US3,Monoclinic,12,42.596,25.019,62.767961650971486
mp-zen,Al12Co4Cu,Monoclinic,12,122.342,75.362,187.57163448375633
mp-bdrv,Na5OsO6,Monoclinic,12,55.843,37.641,92.20586473168592
mp-bgjj,Y4GaCo4,Monoclinic,12,96.804,29.546,80.45286836397277
mp-bgpw,Sm2Ge2Ru,Monoclinic,12,88.624,44.545,114.45830840450105
mp-fhbgq,NaCu2O3,Monoclinic,12,93.317,19.434,54.51743808808057
mp-ftbhv,ZrCuF6,Monoclinic,12,37.708,24.755,60.93135183748068
mp-fuupd,Fe2NiSe4,Monoclinic,12,76.885,32.205,84.77795337822414
mp-bose,Cr2NiS4,Monoclinic,12,123.11,61.657,158.5090488344196
mp-bpid,NbAlO4,Monoclinic,12,173.006,74.472,195.38143100641963
mp-bprf,K2PdF4,Monoclinic,12,24.004,9.85,25.994412547946546
mp-ego,In2Si2O7,Monoclinic,12,151.63,62.028,163.7546975729226
mp-bqoo,Ca2FeN2,Monoclinic,12,77.679,42.257,107.31194115018853
mp-brlk,Li5SbO5,Monoclinic,12,94.256,64.692,157.94187062683469
mp-brox,Ga4GeO8,Monoclinic,12,152.853,72.5,187.80697154176843
mp-brve,NiP3W2,Monoclinic,12,205.053,104.22,267.3633966796362
mp-bskp,ZrCu2Te3,Monoclinic,12,35.784,19.93,50.427995160352594
mp-btwt,Y2Si2Rh,Monoclinic,12,106.197,64.641,161.2133707336548
mp-btwz,Ce4B2N5,Monoclinic,12,144.347,89.672,222.86600420498434
mp-btxn,La4PdO7,Monoclinic,12,113.246,50.422,131.71726550133278
mp-btzx,Dy2CoSi2,Monoclinic,12,101.89,61.658,153.92510938452827
mp-buge,U(SbO3)2,Monoclinic,12,28.801,25.536,59.13185774394984
mp-buhq,Sr2In3Rh2,Monoclinic,12,58.384,26.802,69.73504714935085
mp-esw,Tb2Al3Si2,Monoclinic,12,86.815,65.462,156.93971522550913
mp-eyo,ZnPS3,Monoclinic,12,14.996,9.292,23.104006779661017
mp-bysv,TiNbS4,Monoclinic,12,20.023,16.077,38.04780210385313
mp-fdn,La2Ni5B4,Monoclinic,12,136.781,65.972,170.5036481907981
mp-ffd,Dy2Al3Si2,Monoclinic,12,87.583,65.851,157.96364332623247
mp-fje,Sc2FeSi2,Monoclinic,12,110.477,75.98,185.43039373016435
mp-fkk,HfCu2Te3,Monoclinic,12,41.391,23.641,59.57975346719526
mp-fsb,TlFeS2,Monoclinic,12,24.875,9.844,26.09034675443062
mp-fvr,BaTi2O5,Monoclinic,12,123.542,64.43,164.66454787429666
mp-fys,Zr2CoSi2,Monoclinic,12,167.087,95.112,239.82945018637668
mp-gjk,Yb2Si2O7,Monoclinic,12,88.802,30.327,81.68246971519852
mp-gsr,NaCuO2,Monoclinic,12,58.273,31.25,79.53297803163018
mp-heq,Ni(RhSe2)2,Monoclinic,12,85.507,31.876,85.0584097199347
mp-hgv,V2NiS4,Monoclinic,12,96.085,58.493,145.87740706507319
mp-hnu,Ti2FeSe4,Monoclinic,12,57.172,41.074,99.4145752481302
mp-huw,ThTi2O6,Monoclinic,12,150.848,62.689,165.18466877703875
mp-bevks,TiCu2Te3,Monoclinic,12,41.734,25.085,62.693889092203584
mp-bevlx,GePdS3,Monoclinic,12,8.161,5.086,12.633555886232205
mp-iat,Mg2P2O7,Monoclinic,12,117.085,61.45,156.90107764626063
mp-bfnnj,Ti(GaO2)4,Monoclinic,12,150.756,70.401,182.75497189234488
mp-bfpok,V(MoS2)2,Monoclinic,12,88.535,69.759,165.74533219129063
mp-ihe,Sc2Si2O7,Monoclinic,12,160.151,72.463,188.89885121248074
mp-bfynb,V2FeS4,Monoclinic,12,87.476,71.581,168.72172906718083
mp-iic,Mg2As2O7,Monoclinic,12,103.919,48.223,125.28910893105171
mp-ijk,Y2Si2O7,Monoclinic,12,140.631,59.865,157.27787257295157
mp-bghlm,Sc3RhC4,Monoclinic,12,177.972,116.259,286.41153648171644
mp-bgjnm,Na6ZnSn2,Monoclinic,12,16.146,9.403,23.623165954945456
mp-bgjrq,Ca(CuSn)2,Monoclinic,12,63.562,28.942,75.38429815870472
mp-bgksc,V2NiSe4,Monoclinic,12,19.078,10.885,27.43693051865118
mp-bglhy,Sc3IrC4,Monoclinic,12,189.75,122.916,303.2651112594378
mp-bgmzw,Sr3(AlGe2)2,Monoclinic,12,45.827,31.388,76.66155945733082
mp-ind,Cr2FeSe4,Monoclinic,12,52.11,33.226,82.20611186140243
mp-ipp,TaNO,Monoclinic,12,219.542,74.925,201.8164505944372
mp-bmlfx,Sn4Bi2Se7,Monoclinic,12,31.593,18.669,46.790489501798184
mp-kls,Er2Si2O7,Monoclinic,12,147.56,64.453,168.78444534274047
mp-krr,Na2ZrSe3,Monoclinic,12,34.893,21.712,53.94665240404776
mp-lah,Nb2CrSe4,Monoclinic,12,75.556,46.361,115.46636234246179
mp-bqvsz,Li2CuS2,Monoclinic,12,45.823,16.474,44.13317213514093
mp-bqwyf,Ho2Ge2O7,Monoclinic,12,129.156,49.518,131.72028685587182
mp-bqwzi,LiCuS2,Monoclinic,12,41.616,16.147,42.893449895386354
mp-bqxck,Sc2Ti2O7,Monoclinic,12,137.672,48.995,131.3976436924662
mp-bqxuc,Zn2As2O7,Monoclinic,12,103.132,18.432,52.1870042095245
mp-bqxwo,NaAgO2,Monoclinic,12,58.425,26.511,69.08381441229817
mp-bqycp,Na3(CuO2)2,Monoclinic,12,33.577,21.098,52.332924952187085
mp-bqydb,NbNO,Monoclinic,12,142.058,49.906,134.02352321458577
mp-bqymy,NbNO,Monoclinic,12,186.14,61.596,166.43008399783227
mp-bqywz,Li5TaO5,Monoclinic,12,101.668,68.963,168.73674028991863
mp-bqzla,NaPdO2,Monoclinic,12,86.526,45.178,115.44200820328393
mp-bralj,RbNbO3,Monoclinic,12,62.925,17.347,47.66128688349618
mp-brbfx,Li2HfO3,Monoclinic,12,95.328,52.736,133.57627737364194
mp-lgj,NbGaO4,Monoclinic,12,162.98,59.533,159.21329775576922
mp-brgwe,Na5BiO5,Monoclinic,12,58.661,38.102,93.96227105121798
mp-brgzj,Li2PdO3,Monoclinic,12,103.12,56.718,143.7913270942258
mp-brgzs,Na4PtO4,Monoclinic,12,54.146,30.888,77.85892653859285
mp-brhbn,Li2Ti3O6,Monoclinic,12,106.055,61.957,155.5754381882659
mp-brsls,BaY2F8,Monoclinic,12,78.825,31.896,84.31544317381534
mp-brwaj,Li5NbO5,Monoclinic,12,99.64,64.543,159.2447668125779
mp-lox,V2NiSe4,Monoclinic,12,92.708,44.695,115.52063707526507
mp-lze,Cu2P2O7,Monoclinic,12,80.27,40.766,104.59194455493363
mp-mfl,Na5ReO6,Monoclinic,12,56.295,37.483,92.02468098251667
mp-mml,Ta2PdS6,Monoclinic,12,19.314,11.412,28.602565273812615
mp-mmm,Ta2PdSe6,Monoclinic,12,17.445,9.351,23.80043697111176
mp-mox,Ho2Cr2C3,Monoclinic,12,160.653,70.234,183.9025942342623
mp-bxfhe,Nd2BC,Monoclinic,12,47.035,25.186,64.11418290827524
mp-bxhvu,Ca2SnS4,Monoclinic,12,46.185,17.604,46.85843697769581
mp-nam,TlCu3Se2,Monoclinic,12,36.601,13.476,36.00869315941888
mp-nog,LiCuO2,Monoclinic,12,81.11,41.021,105.30970452011775
mp-noz,Y2Al3Si2,Monoclinic,12,86.1,65.462,156.6783742378661
mp-cdkme,Lu2Mo2C3,Monoclinic,12,167.213,89.256,227.32104985149647
mp-olv,UTi2O6,Monoclinic,12,138.601,58.663,154.22971122693724
mp-oni,TlFeSe2,Monoclinic,12,9.505,3.583,9.549122530998817
mp-cehuf,SrWN3,Monoclinic,12,99.971,46.355,120.44832714833596
mp-cehuw,SrTcN3,Monoclinic,12,100.89,42.097,110.87052116356844
mp-cehyx,CaMoN3,Monoclinic,12,106.478,46.526,121.83287477319925
mp-oqw,Sc2CoSi2,Monoclinic,12,120.146,78.022,192.41500001824573
mp-osk,Ti2FeS4,Monoclinic,12,57.144,56.924,128.2023923347755
mp-cesvd,CuHgO2,Monoclinic,12,46.181,14.739,39.96526553019924
mp-cesvw,LiAgO2,Monoclinic,12,70.805,27.457,72.9423857932564
mp-ceswn,BaAuO2,Monoclinic,12,71.713,25.176,67.6154979589289
mp-ceszm,SrAgO2,Monoclinic,12,79.857,33.996,89.3140150237419
mp-ceszu,SrAuO2,Monoclinic,12,80.847,32.871,86.84333156507343
mp-cgitf,Mn(AlTe2)2,Tetragonal,121,27.918,15.38,38.98167692214579
mp-cgivp,Cd(AgI2)2,Tetragonal,121,10.114,5.05,12.988282662748643
mp-dbbsq,Cu2SnSe4,Tetragonal,121,29.275,8.09,22.222934368972528
mp-biaj,AgClO4,Tetragonal,121,26.665,9.049,24.388215545123757
mp-biof,Cu2HgI4,Tetragonal,121,14.625,8.411,21.173887369467923
mp-bpgq,Zr3GeO8,Tetragonal,121,198.421,48.748,135.17415412469663
mp-brax,Ti(CuS)4,Tetragonal,121,75.053,37.645,96.75778018979926
mp-evt,NaTh2F9,Tetragonal,121,88.135,47.917,121.69646440212345
mp-byof,Zn(InSe2)2,Tetragonal,121,28.627,17.702,44.03035619744553
mp-byzr,Zn(GaS2)2,Tetragonal,121,45.54,29.444,72.67028278254168
mp-caox,Zn2GeSe4,Tetragonal,121,34.738,20.858,52.13866281821671
mp-cayb,Mg(InTe2)2,Tetragonal,121,21.234,12.398,31.134457135348228
mp-cejn,NaClO4,Tetragonal,121,20.812,11.502,29.138151099569914
mp-icb,Rb3TaO8,Tetragonal,121,29.187,14.073,36.3730430662967
mp-bgjfp,Cd(InSe2)2,Tetragonal,121,24.544,14.694,36.748475239453846
mp-ili,Cu3SbS4,Tetragonal,121,68.849,25.749,68.68450644436409
mp-bkkpy,Y(Sn3Ru2)2,Tetragonal,121,117.643,55.679,144.27569057140343
mp-bmllq,Cu3AsSe4,Tetragonal,121,61.042,22.196,59.389612842267276
mp-bmlqi,Zn2GeS4,Tetragonal,121,41.016,25.051,62.440842571523106
mp-bqwfb,Li2WS4,Tetragonal,121,6.489,4.129,10.219432488557382
mp-brgwt,Li3SbS4,Tetragonal,121,28.938,13.461,34.96195225130891
mp-mhr,Si3NiP4,Tetragonal,121,104.417,62.095,155.46712242837276
mp-bwzyk,Li4TiS4,Tetragonal,121,24.697,14.592,36.57304800243564
mp-ong,Rb3NbO8,Tetragonal,121,27.894,13.316,34.463891379203694
mp-onm,Cu3SbSe4,Tetragonal,121,60.879,20.692,55.75876737700967
mp-oxb,CdSnSb2,Tetragonal,122,36.646,18.173,46.78528636885201
mp-cfksx,MgSnP2,Tetragonal,122,55.805,27.179,70.14870373701142
mp-cfktb,BeSiAs2,Tetragonal,122,76.364,57.845,138.55125069266077
mp-cfktc,BeGeAs2,Tetragonal,122,68.992,52.074,124.81839286624204
mp-cfrhv,BeGeP2,Tetragonal,122,83.09,64.905,154.4890842683218
mp-cfvgn,MgSiAs2,Tetragonal,122,57.986,28.695,73.89564640049741
mp-cfvgq,MgGeAs2,Tetragonal,122,52.437,25.811,66.51883805878049
mp-cgoqy,RbVN2,Tetragonal,122,39.935,39.756,89.55134863782504
mp-cgoud,LiCrN2,Tetragonal,122,87.366,47.814,121.31140877410361
mp-teg,CuBS2,Tetragonal,122,117.314,63.314,160.98158091394222
mp-uvx,TlCuS2,Tetragonal,122,56.964,22.129,58.77602542728511
mp-uvy,TlCuSe2,Tetragonal,122,48.836,18.075,48.2698474326024
mp-uvz,AlAgSe2,Tetragonal,122,52.422,18.993,50.83915949823838
mp-uwa,AlAgTe2,Tetragonal,122,42.2,16.77,44.42523540489642
mp-xfx,MgSiN2,Tetragonal,122,174.541,99.161,250.11712071761633
mp-xfy,MgCN2,Tetragonal,122,236.074,138.965,348.5112622006712
mp-bdiv,InAgS2,Tetragonal,122,51.173,16.323,44.26273778570671
mp-beko,InAgSe2,Tetragonal,122,42.952,14.658,39.48265496049166
mp-beti,LiInTe2,Tetragonal,122,23.297,11.157,28.863410090316847
mp-bhda,InAgTe2,Tetragonal,122,36.204,13.697,36.489348224578734
mp-bhqm,InCuS2,Tetragonal,122,66.112,26.014,68.99281529752618
mp-bhtj,InCuSe2,Tetragonal,122,49.798,21.531,56.456379359368135
mp-ejx,MgSiP2,Tetragonal,122,72.206,34.75,89.83811185194615
mp-bsde,ZnCN2,Tetragonal,122,70.643,24.477,65.82810249739855
mp-eok,CdSiAs2,Tetragonal,122,58.932,31.08,79.29948161403915
mp-bysz,CsTaN2,Tetragonal,122,48.648,36.943,88.44164744350337
mp-bzql,MgGeP2,Tetragonal,122,63.914,32.097,82.48352128985564
mp-fen,FeCuS2,Tetragonal,122,50.47,19.147,50.992582010706094
mp-ffo,LiPN2,Tetragonal,122,135.35,100.508,241.69753552406635
mp-fih,ZnSiAs2,Tetragonal,122,66.291,42.28,104.60185575132799
mp-flc,CdGeP2,Tetragonal,122,65.34,35.648,90.48795206934062
mp-cdvp,Ba(LaSe2)2,Tetragonal,122,49.59,26.418,67.30265531885746
mp-frh,CdSnAs2,Tetragonal,122,47.195,23.183,59.7633955925908
mp-frr,GaCuTe2,Tetragonal,122,46.028,24.967,63.431869071640165
mp-fye,ZnGeAs2,Tetragonal,122,59.569,37.29,92.55661925860082
mp-gep,ZnSnP2,Tetragonal,122,64.548,39.275,97.95724822792472
mp-gsa,ZnGeP2,Tetragonal,122,73.515,49.211,120.70063310918013
mp-guk,LiAlTe2,Tetragonal,122,27.57,13.523,34.86810127503039
mp-gxm,CdSiP2,Tetragonal,122,74.415,39.677,101.06828487155886
mp-hay,ZnSnSb2,Tetragonal,122,40.984,22.498,57.054123671364735
mp-hbf,ZnSiP2,Tetragonal,122,84.953,54.178,134.0397839287852
mp-hee,GaCuSe2,Tetragonal,122,55.594,28.705,73.47001043547651
mp-hgl,GaAgTe2,Tetragonal,122,40.225,16.928,44.53652318626774
mp-hin,CdGeAs2,Tetragonal,122,52.238,27.331,69.81689805210682
mp-hjn,AlCuS2,Tetragonal,122,82.165,35.549,93.20514623604828
mp-hme,LiGaTe2,Tetragonal,122,26.207,13.673,34.94219341452315
mp-hmo,FeAgS2,Tetragonal,122,49.061,13.985,38.31444681946788
mp-hrq,ZnSnAs2,Tetragonal,122,53.372,29.953,75.6981077608658
mp-hsn,CdSnP2,Tetragonal,122,57.007,29.276,74.99080060110735
mp-htm,GaCuS2,Tetragonal,122,71.436,36.055,92.58806141482567
mp-hxm,GaAgS2,Tetragonal,122,59.096,22.5,59.89819208360862
mp-bfign,BeZnO2,Tetragonal,122,163.901,82.37,211.65379373354955
mp-ieg,GaAgSe2,Tetragonal,122,49.331,18.696,49.797115490524284
mp-iok,AlAgS2,Tetragonal,122,62.691,21.746,58.47662210762609
mp-lob,CaGeN2,Tetragonal,122,110.837,48.326,126.5811351260513
mp-lwi,AlCuSe2,Tetragonal,122,63.574,28.475,74.32778208643367
mp-lwj,AlCuTe2,Tetragonal,122,49.905,24.581,63.34300985105797
mp-cdhqj,ZnCdTe2,Tetragonal,122,38.904,17.206,44.98603635060261
mp-cdyzl,CuBSe2,Tetragonal,122,86.186,49.34,124.3001096467012
mp-cfiph,KNaH2,Tetragonal,123,17.067,13.115,31.321962575408918
mp-cfkld,MgNiH,Tetragonal,123,94.365,50.585,128.74934585531048
mp-oye,KCu4Se3,Tetragonal,123,41.111,14.519,38.96944172735977
mp-oyo,KAgC2,Tetragonal,123,29.114,14.306,36.87769514402645
mp-cfvki,SrMg6Mo,Tetragonal,123,39.303,25.678,63.25782909316303
mp-cfvlp,SrMg6Nb,Tetragonal,123,38.931,20.756,52.871824033617116
mp-cfxez,MgNiH2,Tetragonal,123,90.601,54.062,135.27884663280807
mp-cfxza,Sr2SO,Tetragonal,123,58.297,39.69,97.0462033917262
mp-cfxzc,SrCdO2,Tetragonal,123,97.832,53.705,136.193755317525
mp-cfybp,BaCaO2,Tetragonal,123,80.465,47.51,119.09115228189198
mp-cfycz,LiHPd,Tetragonal,123,82.256,38.705,100.37189618632934
mp-cfyye,Er2Mg3Ru,Tetragonal,123,49.451,31.234,77.40522869695468
mp-cfyzg,HfGa4Co,Tetragonal,123,94.047,54.445,136.91448912016546
mp-cgdbq,SrMg6Ti,Tetragonal,123,35.604,16.23,42.26748817476959
mp-cgdpw,KMg6V,Tetragonal,123,27.035,15.503,39.04554948865518
mp-cgeom,NaMg6Zr,Tetragonal,123,35.637,18.822,48.013143136646704
mp-cgfaq,SrYMg6,Tetragonal,123,31.352,16.441,41.98416326235101
mp-cgfoj,CaMg6Mo,Tetragonal,123,41.748,26.463,65.54078530324902
mp-cgfpp,CaMg6Nb,Tetragonal,123,42.167,24.369,61.298525929608275
mp-cgfqe,CaMg6W,Tetragonal,123,43.917,26.629,66.45531087889887
mp-cgfuv,CaMg6Zr,Tetragonal,123,38.262,20.459,52.09227935968058
mp-cgfwg,CaYMg6,Tetragonal,123,33.841,18.212,46.325724541696246
mp-cginb,LuGa5Co,Tetragonal,123,87.39,50.001,125.97674514929318
mp-cginh,InPPd5,Tetragonal,123,154.477,53.791,144.5902354559551
mp-cginw,HfGa5Ni,Tetragonal,123,90.233,32.425,86.86954917789419
mp-cgioh,CdPPt5,Tetragonal,123,197.567,60.385,164.40522328606033
mp-cgiol,ScGa5Ni,Tetragonal,123,84.543,43.307,110.97251026820594
mp-cgion,HfGa5Co,Tetragonal,123,103.655,52.044,133.74761336495789
mp-cgiov,Rb2PdCl4,Tetragonal,123,10.332,6.304,15.715719892761394
mp-cgipg,InAsPt5,Tetragonal,123,189.205,59.621,161.86143930673623
mp-cgiph,InPPt5,Tetragonal,123,203.239,57.276,157.07279188237362
mp-cgipm,SiPt5Pb,Tetragonal,123,179.035,56.588,153.5829009605975
mp-cgipo,SiAgPt5,Tetragonal,123,197.096,57.269,156.6360665539035
mp-cgipq,ZnPd5Se,Tetragonal,123,136.71,46.262,124.71801035075113