material_id,formula_pretty,symmetry.crystal_system,symmetry.number,bulk_modulus.vrh,shear_modulus.vrh,youngs_modulus_vrh
mp-tgk,YSn2,Orthorhombic,63,59.361,37.676,93.29096503042747
mp-bzp,Te2Rh3,Orthorhombic,63,146.115,48.875,131.91645586182833
mp-txi,HfSb,Orthorhombic,63,100.739,59.904,149.98307610991907
mp-txl,BePd3,Orthorhombic,63,158.862,35.489,99.08837897183028
mp-tzb,ZrPd,Orthorhombic,63,137.302,36.61,100.86515526759356
mp-ugh,HfGe2,Orthorhombic,63,111.883,67.117,167.79783248586025
mp-utf,NiB,Orthorhombic,63,261.814,104.142,275.8508497140236
mp-ccb,TbGe,Orthorhombic,63,80.709,53.889,132.2359119405708
mp-cgh,ZrSi2,Orthorhombic,63,126.046,96.722,231.06345219222507
mp-djmyx,Ag2S,Orthorhombic,63,28.202,8.147,22.294214160188886
mp-cid,CaSi,Orthorhombic,63,53.572,38.383,92.95017395366125
mp-yeo,HoGe,Orthorhombic,63,80.872,54.586,133.68116946723103
mp-yls,Al6Re,Orthorhombic,63,112.677,72.365,178.81470566233588
mp-yta,Al6Tc,Orthorhombic,63,107.586,69.162,170.87101037966934
mp-cni,SrSn,Orthorhombic,63,32.734,21.427,52.767495858027736
mp-cnv,Er3Ge4,Orthorhombic,63,78.243,51.693,127.09058169763496
mp-gr,MnAl6,Orthorhombic,63,110.784,69.344,172.11984003823784
mp-coo,BaGe,Orthorhombic,63,30.305,18.207,45.50748900313412
mp-gw,ThAl,Orthorhombic,63,72.139,37.801,96.54051660779332
mp-bdmc,GdGe,Orthorhombic,63,73.164,46.12,114.33562158336218
mp-bdty,DyGe,Orthorhombic,63,81.505,54.729,134.15869425953403
mp-bdum,BaPb,Orthorhombic,63,24.299,13.484,34.13747750083931
mp-bfiy,CeNi,Orthorhombic,63,71.273,15.258,42.72515750599143
mp-dfk,SnSe,Orthorhombic,63,27.105,19.801,47.77043143518335
mp-djc,ErGe,Orthorhombic,63,80.602,54.614,133.65487703933607
mp-bhve,TlI,Orthorhombic,63,11.664,5.404,14.043229626695712
mp-bhvq,InBr,Orthorhombic,63,13.519,7.042,18.00052904472783
mp-biik,InI,Orthorhombic,63,13.331,7.457,18.855287734457324
mp-dln,TiZn16,Orthorhombic,63,79.295,24.042,65.50563137820843
mp-dmj,YCd3,Orthorhombic,63,55.533,25.172,65.60371528541856
mp-dmu,CaGe,Orthorhombic,63,48.071,33.926,82.39470702092187
mp-dpm,ZrGe2,Orthorhombic,63,108.179,71.611,175.99800408180778
mp-dqg,CaSn,Orthorhombic,63,37.561,22.571,56.413148439232856
mp-jp,HfAl,Orthorhombic,63,117.671,70.131,175.5229049897907
mp-dsd,BaSi,Orthorhombic,63,32.012,20.384,50.4448846589933
mp-jv,NaHg,Orthorhombic,63,17.221,6.751,17.912328191871815
mp-dvg,NbB,Orthorhombic,63,263.884,198.028,475.21197434322204
mp-dwu,DySi,Orthorhombic,63,91.134,65.591,158.6998308106657
mp-dyj,SrSi,Orthorhombic,63,44.145,30.984,75.32843867604134
mp-borg,Ta3N5,Orthorhombic,63,241.568,98.734,260.6860191149789
mp-bpjz,NdBr3,Orthorhombic,63,9.801,5.38,13.64357358479717
mp-bpka,SmBr3,Orthorhombic,63,10.18,5.194,13.317128784910729
mp-bpkd,LaI3,Orthorhombic,63,6.8469999999999995,3.843,9.711991018700788
mp-brfm,Li2Ga,Orthorhombic,63,33.134,27.31,64.27178057326852
mp-bsbc,YGe3,Orthorhombic,63,73.159,51.058,124.2655109246493
mp-lr,BaZn5,Orthorhombic,63,47.618,27.225,68.60106450531812
mp-bszo,MgAu3,Orthorhombic,63,111.519,29.873,82.27276509343359
mp-btad,VAu2,Orthorhombic,63,125.266,26.935,75.40071806879494
mp-btcl,CaZn,Orthorhombic,63,32.099,14.606,38.04713980685824
mp-btcn,Ca3Zn,Orthorhombic,63,22.439,9.782,25.622701747104372
mp-btde,TmCd3,Orthorhombic,63,57.293,29.664,75.89375948556884
mp-btfo,ThCo,Orthorhombic,63,101.93,22.233,62.17822289900404
mp-bthc,DyGa,Orthorhombic,63,68.534,42.601,105.86718293493632
mp-bthl,ErSn2,Orthorhombic,63,60.804,37.354,93.01463167186917
mp-bthr,Zr3Co,Orthorhombic,63,103.802,35.813,96.35748399137145
mp-btqe,Ti2Pd3,Orthorhombic,63,154.553,41.93,115.35786104919212
mp-btqn,TaPt2,Orthorhombic,63,243.933,75.583,205.5219108810947
mp-btrk,ThSn2,Orthorhombic,63,71.526,40.547,102.30860361783438
mp-bttt,ZrBi,Orthorhombic,63,82.991,48.372,121.50857040811178
mp-buef,Zr3Fe,Orthorhombic,63,102.072,37.707,100.71864962796906
mp-buiu,Li2In,Orthorhombic,63,28.365,23.649,55.51786733061135
mp-buky,SmPd,Orthorhombic,63,75.905,26.496,71.20309475199736
mp-cboy,Ag2S,Orthorhombic,63,27.991,8.545,23.267341003912748
mp-oo,ErSi,Orthorhombic,63,94.174,66.701,161.8836667859791
mp-us,CaAg,Orthorhombic,63,34.318,13.005,34.63940108141671
mp-bfpxf,CuS,Orthorhombic,63,58.947,20.592,55.33284514746775
mp-vk,ZrNi,Orthorhombic,63,139.087,38.253,105.12180767001674
mp-bfuac,Pd3S,Orthorhombic,63,113.764,39.33,105.79799139303562
mp-bfvya,SnS,Orthorhombic,63,28.192,23.866,55.84065627708822
mp-bghar,ZrRh,Orthorhombic,63,161.195,47.288,129.22733391978872
mp-bgjsi,ZrIr,Orthorhombic,63,186.261,55.113,150.4955602202979
mp-bglfd,Al6Fe,Orthorhombic,63,105.11,57.151,145.14639535976332
mp-bgljk,Cr3C2,Orthorhombic,63,309.637,144.082,374.2038057154148
mp-bgnmx,InCl,Orthorhombic,63,12.514,6.673,16.997699830374305
mp-xp,Te2Pd3,Orthorhombic,63,106.336,25.081,69.75846058432556
mp-bjudp,SnSe,Orthorhombic,63,13.848,5.384,14.298898056597341
mp-zn,NdGe,Orthorhombic,63,71.314,47.984,117.58045701457662
mp-kfy,CaGa,Orthorhombic,63,37.038,27.264,65.67688713523827
mp-kml,LaSi,Orthorhombic,63,65.047,45.062,109.82515299975438
mp-kux,ErCd3,Orthorhombic,63,57.028,29.141,74.69934589586714
mp-lxt,YCo,Orthorhombic,63,73.704,27.181,72.61636782349885
mp-bxfmz,MgSc2,Orthorhombic,63,49.044,25.681,65.59396964348745
mp-bxglr,Y2Mg,Orthorhombic,63,41.701,20.535,52.91867723396366
mp-bho,BaSn,Orthorhombic,63,28.386,16.162,40.751784326885115
mp-nlv,Tb2Si3,Orthorhombic,63,73.503,33.445,87.1211735786796
mp-nxn,SmTe3,Orthorhombic,63,22.055,12.107,30.70292013746934
mp-cdjxm,LiMg2,Orthorhombic,63,28.486,13.561,35.11132019107444
mp-cdokv,Nd2Mg,Orthorhombic,63,36.226,18.853,48.197842108977426
mp-cdppi,Li2Mg,Orthorhombic,63,21.078,7.239,19.48622561832191
mp-cdwty,VIr,Orthorhombic,63,270.236,116.36,305.2655777569714
mp-cechp,AlAg2,Orthorhombic,63,94.159,33.298,89.36032756868023
mp-otl,ScSi,Orthorhombic,63,101.131,70.078,170.78574765376695
mp-otm,ScGe,Orthorhombic,63,89.435,57.039,141.1169306487902
mp-otn,YGe,Orthorhombic,63,78.14,54.513,132.68409070614985
mp-oto,YSi,Orthorhombic,63,89.203,65.637,158.1268966439207
mp-cevzw,TbPd,Orthorhombic,63,81.785,28.181,75.83297176605639
mp-cewac,TbNi,Orthorhombic,63,76.757,27.534,73.77996990748822
mp-cewar,SmNi,Orthorhombic,63,70.621,23.373,63.151990753966224
mp-cewcs,BMo,Orthorhombic,63,308.669,192.421,477.9472427737861
mp-cewia,NdPd,Orthorhombic,63,73.81,25.201,67.87781053476651
mp-cat,Sn3Pd,Orthorhombic,64,64.308,23.339,62.460798694182536
mp-zip,Si2Os,Orthorhombic,64,203.505,120.912,302.77220972154436
mp-cny,FeSi2,Orthorhombic,64,182.055,128.034,311.15897358198396
mp-cpn,ZnAu3,Orthorhombic,64,127.051,37.609,102.69401123072296
mp-dyu,K2O2,Orthorhombic,64,32.413,16.455,42.220374294158
mp-brwh,SmSb2,Orthorhombic,64,58.083,28.693,73.90870135802348
mp-bsga,NiGe2,Orthorhombic,64,110.731,47.537,124.75805420430306
mp-bslp,CoGe2,Orthorhombic,64,122.975,66.091,168.1498301786601
mp-bwnz,Ag2Te,Orthorhombic,64,52.857,12.209,34.00854910996603
mp-bgjus,La2Co3,Orthorhombic,64,70.274,14.097,39.64037365451563
mp-bgkxz,Si2Ru,Orthorhombic,64,183.66,108.94,272.86835313371313
mp-bgmfm,SnBi,Orthorhombic,64,48.347,17.093,45.872904134851424
mp-bkgrv,Ti2Sn3,Orthorhombic,64,87.487,48.891,123.6412236086487
mp-bkluq,FeGe2,Orthorhombic,64,128.509,67.937,173.2764748623926
mp-cgijt,PrSn2,Orthorhombic,65,53.735,30.622,77.20111626621905
mp-qwz,ScGa2,Orthorhombic,65,75.019,51.181,125.094762310037
mp-rmf,TiAl2,Orthorhombic,65,109.309,82.494,197.7384924601811
mp-sun,NdSn2,Orthorhombic,65,55.135,31.099,78.53168528376013
mp-yfr,ThGe2,Orthorhombic,65,87.818,48.812,123.54579090903266
mp-yle,Al3Ni5,Orthorhombic,65,172.818,75.145,196.8966886568205
mp-bhjq,TiSi,Orthorhombic,65,131.686,40.349,109.82962085129546
mp-fekuv,LiMg,Orthorhombic,65,25.554,12.984,33.3103342480423
mp-bqjd,Ta5B6,Orthorhombic,65,291.265,204.868,497.8736659920661
mp-btkd,ZrGa2,Orthorhombic,65,99.541,62.966,156.00388135147915
mp-btnj,Li7Sn2,Orthorhombic,65,27.747,22.949,53.96829387889632
mp-bubw,Rb3Au7,Orthorhombic,65,45.356,14.575,39.494522148390566
mp-bgkcg,VIr,Orthorhombic,65,272.357,117.569,308.3397470651802
mp-bgmsx,OsCl4,Orthorhombic,65,5.865,3.473,8.701457423580788
mp-braed,Ti3O4,Orthorhombic,65,179.336,93.478,238.92174248043503
mp-bxfvq,HfPd5,Orthorhombic,65,167.044,68.884,181.67898807051031
mp-bglwu,LaCo5,Orthorhombic,66,180.839,23.948,68.8067071187099
mp-cbp,Sn4Au,Orthorhombic,68,53.102,14.399,39.616253314527505
mp-beos,Sn4Pt,Orthorhombic,68,60.455,29.701,76.5645134460311
mp-ddw,Sn4Pd,Orthorhombic,68,56.496,24.132,63.372860489618844
mp-xai,Rb2As3,Orthorhombic,69,11.807,6.537,16.555632561132562
mp-dbz,Rb2P3,Orthorhombic,69,14.668,8.536,21.44755295013323
mp-mfu,K2P3,Orthorhombic,69,16.206,9.501,23.843473803747482
mp-bog,NbSn2,Orthorhombic,70,96.844,47.291,122.01255224185445
mp-qdq,Al2Ru,Orthorhombic,70,166.651,103.353,256.94245909538444
mp-bexj,VSn2,Orthorhombic,70,94.914,51.156,130.09540174695888
mp-ddz,SrN6,Orthorhombic,70,39.156,20.283,51.88935348563714
mp-drl,Mg2Cu,Orthorhombic,70,56.418,30.526,77.58505762338572
mp-dvi,TiSi2,Orthorhombic,70,142.135,111.779,265.68863712968056
mp-pl,Sc2S3,Orthorhombic,70,55.932,37.408,91.76594171653575
mp-bfpst,SiO2,Orthorhombic,70,119.344,43.519,116.40758913313627
mp-bgibx,TiGe2,Orthorhombic,70,113.668,80.368,195.11839518525196
mp-bgifm,TaSn2,Orthorhombic,70,103.041,49.663,128.36600828070212
mp-bgkzp,K2P3,Orthorhombic,70,16.217,9.422,23.680009057565478
mp-baa,CaN6,Orthorhombic,70,46.695,23.676,60.759016982065326
mp-bqzjc,ZrSn2,Orthorhombic,70,87.588,53.789,133.94735917208175
mp-oze,Mn3B4,Orthorhombic,71,237.291,170.637,412.93086684910094
mp-pac,Ta3B4,Orthorhombic,71,294.112,209.478,507.86117582665185
mp-cfydr,NbPd2,Orthorhombic,71,194.599,76.958,203.98415233785593
mp-cginq,Ti3B4,Orthorhombic,71,224.584,217.798,493.77546328080314
mp-pel,Nb3B4,Orthorhombic,71,274.679,196.187,475.38191687021674
mp-qoa,NaC,Orthorhombic,71,28.546,15.367,39.087148537201124
mp-raw,NbPt2,Orthorhombic,71,241.924,110.128,286.8566293192966
mp-rbn,VNi2,Orthorhombic,71,229.507,85.56,228.30888534920769
mp-rcf,VPd2,Orthorhombic,71,192.283,78.469,207.2189266020466
mp-rxs,VPt2,Orthorhombic,71,246.671,114.484,297.43690718165186
mp-cba,LiC,Orthorhombic,71,40.769,30.156,72.57413061529682
mp-ffoui,CaC2,Orthorhombic,71,57.491,22.771,60.34576247669582
mp-flckx,Mg3Cu,Orthorhombic,71,44.71,22.319,57.40492051722926
mp-btpz,TaPd2,Orthorhombic,71,205.117,73.846,197.80067214163728
mp-bgipc,Ti6Sn5,Orthorhombic,71,102.154,56.499,143.11286781224428
mp-bgmrf,TiSi2,Orthorhombic,71,138.262,107.94,256.95297827159925
mp-bsqsc,Ni2Mo,Orthorhombic,71,240.432,96.666,255.72630196512796
mp-bsqsd,CrNi2,Orthorhombic,71,221.367,111.762,286.98851200018555
mp-mwq,K2Au3,Orthorhombic,71,33.183,14.542,38.06544489924709
mp-bif,Cr3B4,Orthorhombic,71,300.71,205.66,502.43833885483707
mp-bkq,MoPt2,Orthorhombic,71,271.801,138.285,354.7009205998188
mp-xeh,Sb2Pt3,Orthorhombic,72,135.898,20.292,57.9897004668377
mp-cjq,SiS2,Orthorhombic,72,6.09,4.007,9.858763298469272
mp-dil,AgN3,Orthorhombic,72,24.282,7.425,20.214581231079716
mp-btqp,Ti3Pt5,Orthorhombic,72,202.97,73.603,196.99669924235874
mp-blo,V6Si5,Orthorhombic,72,185.901,120.052,296.3608998354863
mp-cgigt,ErCu2,Orthorhombic,74,86.857,24.491,67.16059342528993
mp-cgiku,ErZn2,Orthorhombic,74,70.145,42.435,105.94150225412267
mp-cgily,MgSi2,Orthorhombic,74,72.283,30.387,79.95668789739359
mp-qri,BaCd2,Orthorhombic,74,26.527,7.81,21.336096737650326
mp-qwy,ScGa2,Orthorhombic,74,79.908,49.437,122.95470746054967
mp-cpdzj,MgF2,Orthorhombic,74,50.398,13.638,37.528825203843915
mp-cqpab,LiB,Orthorhombic,74,43.817,32.433,78.04331630299481
mp-tqk,CaAg2,Orthorhombic,74,48.592,15.092,41.02838461347191
mp-cbh,CeZn2,Orthorhombic,74,49.695,24.161,62.37447360978032
mp-dbrgu,SbO2,Orthorhombic,74,68.54,37.802,95.79471748650492
mp-cdo,CaCd2,Orthorhombic,74,35.875,15.863,41.47582052507126
mp-cgt,TbCu2,Orthorhombic,74,84.123,22.729,62.553290111160386
mp-coj,CaZn2,Orthorhombic,74,44.942,23.828,60.74792809510003
mp-cxg,TmGa2,Orthorhombic,74,76.021,50.722,124.48099595745826
mp-bhak,SrAl2,Orthorhombic,74,44.927,33.57,80.62794108737104
mp-dly,TbZn2,Orthorhombic,74,65.918,35.596,90.4981964945361
mp-dzu,YCu2,Orthorhombic,74,84.831,20.657,57.318501555515184
mp-bsxo,SrAg2,Orthorhombic,74,40.502,17.609,46.140225439384686
mp-btap,BaZn2,Orthorhombic,74,27.55,7.882,21.587305041311357
mp-btll,KHg2,Orthorhombic,74,11.826,4.929,12.983225332244412
mp-btoq,NdZn2,Orthorhombic,74,56.978,23.092,61.031118427427245
mp-rb,CaAu2,Orthorhombic,74,65.801,15.106,42.09661310344503
mp-bghok,YbCu2,Orthorhombic,74,66.135,29.254,76.48465296781589
mp-bgjxo,SiB3,Orthorhombic,74,156.676,129.394,304.387241536013
mp-bgkig,TmZn2,Orthorhombic,74,71.161,43.099,107.57851856716371
mp-bgkja,SrZn2,Orthorhombic,74,35.093,14.647,38.574325325617465
mp-bglir,DyZn2,Orthorhombic,74,65.917,38.077,95.7871604771274
mp-zh,YbZn2,Orthorhombic,74,47.078,21.379,55.704802555761226
mp-cdrdz,MgB7,Orthorhombic,74,183.359,183.073,412.0749367291823
mp-onz,RbHg2,Orthorhombic,74,10.747,4.682,12.264904964385343
mp-csmot,B4C,Monoclinic,8,238.023,184.835,440.4862263879124
mp-bpeb,Ag3P11,Monoclinic,8,52.412,32.91,81.64205547316273
mp-bsqu,Al4Mo,Monoclinic,8,111.709,74.751,183.3551328224496
mp-bswu,Al4W,Monoclinic,8,116.786,76.786,188.94744667840357
mp-bgjdb,Re4Si7,Monoclinic,8,210.961,162.768,388.41062278813195
mp-cdprl,MgRh5,Monoclinic,8,198.411,87.191,228.15270492977973
mp-xqa,Hf3Sb,Tetragonal,82,115.025,49.685,130.29474649153917
mp-cqz,Zr3Te,Tetragonal,82,105.452,37.599,100.81509720727212
mp-dki,Ni3P,Tetragonal,82,199.918,56.587,155.12491036519128
mp-btjt,Ti2Ga3,Tetragonal,83,107.755,70.461,173.5540083586047
mp-btgs,Cu4Pd,Tetragonal,84,145.218,47.364,128.15867766418643
mp-bsdus,ZrO2,Tetragonal,85,188.21,98.43,251.45475929780113
mp-bhfj,Zr3P,Tetragonal,86,125.1,63.867,163.73692763800557
mp-pww,Ti4O5,Tetragonal,87,207.408,90.488,236.99813660496804
mp-rap,Ni4Mo,Tetragonal,87,209.68,92.581,242.1097178712926
mp-rkn,Ti5Se4,Tetragonal,87,84.426,47.028,118.99020782801541
mp-sph,MnAu4,Tetragonal,87,130.268,30.71,85.41773824831442
mp-srz,TiAu4,Tetragonal,87,146.22,39.965,109.88381446852965
mp-tbo,Hf5Te4,Tetragonal,87,77.308,36.907,95.52044668955588
mp-xld,Nb5Se4,Tetragonal,87,112.67,52.617,136.58865493168673
mp-cpb,Mo5As4,Tetragonal,87,152.527,85.16,215.39333472134956
mp-ctg,UF5,Tetragonal,87,14.284,11.448,27.103298121546963
mp-dnf,Ga2Te5,Tetragonal,87,13.543,13.907,31.081900194367023
mp-dvy,Ta5Sb4,Tetragonal,87,105.592,60.636,152.68218447744107
mp-ko,Nb5Sb4,Tetragonal,87,96.984,54.863,138.47721680089066
mp-bpbb,BiF5,Tetragonal,87,13.737,10.508,25.119116069529575
mp-bsxm,ScAg4,Tetragonal,87,89.295,35.942,95.07044472676886
mp-btem,V5Sb4,Tetragonal,87,90.199,52.07,131.00179866549723
mp-bton,Nb5Te4,Tetragonal,87,89.583,43.695,112.75288584514344
mp-btpb,Ni4W,Tetragonal,87,226.168,97.776,256.3820030298346
mp-nm,Zr5Te4,Tetragonal,87,68.334,35.885,91.61760622200451
mp-lck,Ti5Te4,Tetragonal,87,68.104,38.922,98.08125094353585
mp-lsx,Nb4N5,Tetragonal,87,268.181,161.799,404.124790779041
mp-lxm,Ta4N5,Tetragonal,87,289.948,175.313,437.71881498760473
mp-cyg,Al21Pt8,Tetragonal,88,132.661,63.079,163.34703135586972
mp-bfsbh,NbO2,Tetragonal,88,207.449,81.941,217.22250923059886
mp-bghkh,ThCl4,Tetragonal,88,24.216,10.533,27.597698416705736
mp-bglnx,ThBr4,Tetragonal,88,21.662,9.13,24.015955259323228
mp-bep,LiSi,Tetragonal,88,52.319,36.261,88.367819411235
mp-orm,LiGe,Tetragonal,88,39.993,21.135,53.90867309409414
mp-bzo,Ga2Se3,Monoclinic,9,27.869,19.013,46.47105508672773
mp-ng,BN,Monoclinic,9,180.219,115.861,286.24223864539897
mp-cfqw,Ga2Te3,Monoclinic,9,21.714,14.943,36.46439056002997
mp-ut,Ga2S3,Monoclinic,9,31.225,22.912,55.227810990933804
mp-vpb,ZnP4,Tetragonal,92,66.685,37.354,94.43013285090287
mp-nr,Nd5Si4,Tetragonal,92,64.481,33.016,84.60755485098848
mp-bfpqw,As2O5,Tetragonal,92,91.699,51.804,130.7838610588527
mp-vl,TeO2,Tetragonal,92,31.251,29.509,67.33358075481495
mp-khd,SiO2,Tetragonal,92,12.474,46.397,62.143494935515825
mp-lav,SnF2,Tetragonal,92,12.518,10.742,25.058290624482357
mp-lhf,MgAs4,Tetragonal,92,43.341,25.406,63.7596138043737
mp-lom,GeO2,Tetragonal,92,20.101,25.441,53.677293676525466
mp-cgdcl,Cu2Se,Tetragonal,96,75.852,26.749,71.8062418434557
mp-qib,ZnP2,Tetragonal,96,68.444,42.518,105.67245482348194
mp-ebj,TeO2,Tetragonal,96,31.468,28.985,66.52861940691633
mp-bjfrj,Cu2S,Tetragonal,96,91.372,29.117,78.96339354885517
mp-sd,CdAs2,Tetragonal,98,36.727,18.611,47.76489046679919
mp-weh,Si4P4Ru,Triclinic,1,119.975,86.833,209.8677641474803
mp-bitj,KIO3,Triclinic,1,21.031,14.11,34.59356100151548
mp-brdl,Si3P2Pt,Triclinic,1,122.687,81.176,199.52310074192465
mp-cckp,PNO,Triclinic,1,51.111,53.892,119.62970736156352
mp-begkp,Mg(AlB14)2,Triclinic,1,189.975,174.61,400.9802262485981
mp-bqwfd,HfTiO4,Triclinic,1,182.734,74.28,196.24878097679934
mp-bscis,Ti3TeO8,Triclinic,1,6.146,13.893,23.76905762271504
mp-npu,Fe(SiP)4,Triclinic,1,112.916,90.786,214.79260730000416
mp-crfmj,V9Cr3B8,Monoclinic,10,271.858,211.081,503.0477877008343
mp-swd,CrTe4Au,Monoclinic,10,26.69,19.236,46.529711799891246
mp-fkmdf,Li7B18O,Monoclinic,10,129.576,91.595,222.38498568671497
mp-bioql,Zr4In5Co2,Monoclinic,10,84.627,52.398,130.3013589374394
mp-bmlak,LiTi2O4,Monoclinic,10,168.606,114.219,279.5350574659254
mp-bmlon,Ca(HoSe2)2,Monoclinic,10,41.864,28.249,69.18536166561579
mp-mvt,ZrTiTe4,Monoclinic,10,14.309,12.148,28.40547595097594
mp-cbufg,YCuTe2,Monoclinic,10,42.341,20.022,51.88726932571662
mp-cehzn,HfTeSe4,Monoclinic,10,12.699,8.671,21.1900714377352
mp-ceswk,AgPtO2,Monoclinic,10,123.077,34.632,94.98672563715913
mp-cgpea,Y3Si6N11,Tetragonal,100,141.881,94.254,231.4990584019527
mp-ccqu,Mg(CN)2,Tetragonal,102,35.297,2.902,8.473771713253612
mp-brcq,Sr6Cu3N5,Tetragonal,105,63.615,27.585,72.30406983930779
mp-cfkmv,LiFeP,Tetragonal,107,63.254,71.498,155.79426788639668
mp-cflvo,BaSiC,Tetragonal,107,24.222,20.55,48.05890512358394
mp-ciwgq,CaSi3Pt,Tetragonal,107,103.918,47.82,124.38115336481503
mp-qrl,BaSn3Pd,Tetragonal,107,55.006,23.411,61.50703550939612
mp-rox,BaNiSn3,Tetragonal,107,46.496,31.724,77.53750867929818
mp-tkr,CeGe3Rh,Tetragonal,107,95.273,40.715,106.91493613222515
mp-vqn,NdCoGe3,Tetragonal,107,92.959,53.156,133.93836587327164
mp-bdof,LaCoGe3,Tetragonal,107,86.372,54.869,135.841863184547
mp-bhbm,BaGe3Pt,Tetragonal,107,74.417,40.321,102.45819249768564
mp-eic,LaSi3Ir,Tetragonal,107,122.782,67.694,171.55408304742684
mp-brjg,Na5Co2S5,Tetragonal,107,33.706,14.373,37.752786295035975
mp-btan,BaSn3Pt,Tetragonal,107,60.919,26.771,70.05155845996715
mp-btov,SrNiSn3,Tetragonal,107,51.162,24.888,64.24635150862794
mp-btpy,SrSn3Pd,Tetragonal,107,56.392,13.412,37.28046495936206
mp-cdivz,SmCoSi3,Tetragonal,107,136.209,72.161,183.99127856976466
mp-cdsfj,SrGe3Pd,Tetragonal,107,70.823,26.34,70.30430335540116
mp-bfvie,Bi2PdO4,Tetragonal,108,36.71,24.815,60.75532883767462
mp-cgiie,PrSiAg,Tetragonal,109,79.699,25.792,69.84196954950941
mp-rat,LaAlGe,Tetragonal,109,70.446,47.27,115.88907450658913
mp-boih,Ga2TeS2,Tetragonal,109,24.352,18.386,44.0675274819011
mp-bqvcx,NbNO,Tetragonal,109,177.394,57.723,156.22417975436724
mp-brbhm,NbRhO4,Tetragonal,109,215.16,81.083,216.1028906233871
mp-brgwa,TaAlO4,Tetragonal,109,215.809,117.113,297.5205414406048
mp-cgiyv,PrBrO2,Monoclinic,11,60.485,24.082,63.78120693597747
mp-bibm,KClO3,Monoclinic,11,15.769,7.956,20.431816513761465
mp-bkdo,KH2N,Monoclinic,11,19.158,10.617,26.884674538485267
mp-fkmcl,LiCoS2,Monoclinic,11,80.565,31.703,84.08024109539939
mp-fmqdn,BaCO3,Monoclinic,11,49.604,21.994,57.48576387246349
mp-fnrhd,Zr2N2O,Monoclinic,11,160.644,79.641,205.03948593682392
mp-bqkn,NdSi2Ru,Monoclinic,11,125.248,62.129,159.94088908884538
mp-bqpn,LaSi2Ru,Monoclinic,11,118.955,59.136,152.18883108454068
mp-brau,Sr3(GeN)2,Monoclinic,11,50.267,30.528,76.16519577122247
mp-brdg,Zr2CoP,Monoclinic,11,158.429,79.053,203.33836568351555
mp-brdh,Zr2NiP,Monoclinic,11,157.834,82.497,210.76923426480982
mp-brdi,Hf2CoP,Monoclinic,11,171.95,86.955,223.23505984522362
mp-bspr,CuAuSe4,Monoclinic,11,29.101,19.356,47.530078136866095
mp-bupy,NbCuTe2,Monoclinic,11,65.953,37.452,94.47346619580044