material_id,formula_pretty,symmetry.crystal_system,symmetry.number,bulk_modulus.vrh,shear_modulus.vrh,youngs_modulus_vrh
mp-bxapp,LiMnPd2,Cubic,225,102.805,43.455,114.26527261488619
mp-bxapx,Ti2AlTc,Cubic,225,159.815,61.979,164.65203789451522
mp-bxapz,Ti2CoIr,Cubic,225,193.269,71.126,190.06266089751173
mp-bxaqa,Ti2AlRe,Cubic,225,172.0,72.215,190.0475506404971
mp-bxaqb,Ti2CoRe,Cubic,225,190.189,96.956,248.62017062483238
mp-bxaqd,CaLaMg2,Cubic,225,29.61,18.121,45.152128451346876
mp-bxaqf,Ca2MgTl,Cubic,225,28.633,18.831,46.33526407906044
mp-bxaql,Li2PdPb,Cubic,225,50.293,20.181,53.40037002806033
mp-bxaqq,Ti2CrIr,Cubic,225,194.37,78.863,208.4033816938153
mp-bxaqs,LiMnPt2,Cubic,225,134.07,50.068,133.57614308014095
mp-bxaqu,LiNdHg2,Cubic,225,48.714,9.543,26.8741324983139
mp-bxaqv,LiPr2Ru,Cubic,225,61.849,22.364,59.87523182515596
mp-bxaqw,CaZrRh2,Cubic,225,120.366,34.247,93.84099866698706
mp-bxaqx,LiRh2Pb,Cubic,225,125.906,52.058,137.256922052418
mp-bxaqz,LiTmIn2,Cubic,225,38.577,18.108,46.97413193463788
mp-bxara,LiRu2W,Cubic,225,221.989,82.095,219.2568030390529
mp-bxarg,Ti2FeIr,Cubic,225,191.953,75.782,200.90700280369094
mp-bxatg,Ac2AgIr,Cubic,225,67.493,14.533,40.67923396402042
mp-bxatp,LiTePd2,Cubic,225,94.385,19.117,53.72387255518208
mp-bxatr,AcMgTl2,Cubic,225,39.982,10.424,28.77158327836158
mp-bxats,LiSbPd2,Cubic,225,107.809,33.967,92.2162507680599
mp-bxayy,Ac2HgGe,Cubic,225,47.445,14.917,40.50589871670948
mp-bxazb,LiHf2Re,Cubic,225,137.66,44.212,119.80965388720713
mp-bxazc,LiAc2Si,Cubic,225,39.953,22.936,57.755930333695154
mp-bxazg,AcCdRh2,Cubic,225,93.343,27.025,73.93927835169059
mp-bxazh,LiGeAu2,Cubic,225,77.804,17.072,47.725319748965994
mp-bxazi,LiGeIr2,Cubic,225,206.944,107.147,274.1299665402436
mp-bxazj,Ac2CuIr,Cubic,225,68.935,18.099,49.92748499359727
mp-bxazk,AcGaTe2,Cubic,225,43.131,14.998,40.32043993046658
mp-bxazw,LiHg2Pd,Cubic,225,69.136,11.597,32.94870769160521
mp-bxbaa,LiGaAu2,Cubic,225,85.118,26.976,73.19551061523748
mp-bxbab,LiGaCu2,Cubic,225,86.815,36.374,95.74952846684343
mp-bxbaf,LiBiPd2,Cubic,225,82.613,15.71,44.320608577532084
mp-bxbai,TaTiRu2,Cubic,225,234.152,70.548,192.3283678532065
mp-bxbaj,CdGaRh2,Cubic,225,160.28,52.518,142.04017819175863
mp-bxbam,TaTiTc2,Cubic,225,230.754,101.829,266.3133590407145
mp-bxban,LiDy2Al,Cubic,225,49.683,31.25,77.50094981114704
mp-bxbbh,LiTmHg2,Cubic,225,54.296,15.603,42.717136393431595
mp-bxbbj,CaSnRh2,Cubic,225,116.199,38.677,104.44300032276888
mp-bxbbl,Ba2AsAu,Cubic,225,36.968,20.318,51.516075170322054
mp-bxbbo,Ca2CdSn,Cubic,225,34.346,24.541,59.4609353733765
mp-bxbbu,Er2MgAl,Cubic,225,57.65,36.576,90.57328255204607
mp-bxbbv,LiPm2Ga,Cubic,225,41.038,25.461,63.29339836446239
mp-bxbbz,LiTaRh2,Cubic,225,185.431,67.999,181.7772822989883
mp-bxbcb,AlFeRh2,Cubic,225,193.542,40.729,114.17780344891406
mp-bxbcc,LiTaRu2,Cubic,225,190.046,66.077,177.64281866664572
mp-bxbcd,LiPm2Ge,Cubic,225,52.428,26.487,68.00824898378961
mp-bxbce,LiPm2Ir,Cubic,225,73.728,28.359,75.40853146752262
mp-bxbcg,Ti2MnBe,Cubic,225,153.777,55.985,149.77856494869675
mp-bxbcj,TiZnRh2,Cubic,225,190.201,83.01,217.40275222494046
mp-bxbcw,PaCdPt2,Cubic,225,145.981,32.81,91.56973931127364
mp-bxbda,Hf2ReIr,Cubic,225,213.322,103.795,267.9299034367223
mp-bxbdf,Ti2MnFe,Cubic,225,184.197,76.543,201.69140237056018
mp-bxbdp,Ho2TlAg,Cubic,225,63.714,26.76,70.42101385026297
mp-bxbdq,Ho2TlCd,Cubic,225,59.723,25.452,66.85837799639334
mp-bxbny,LaCdHg2,Cubic,225,52.817,14.129,38.91680691273612
mp-bxbox,BeAlRh2,Cubic,225,199.23,102.765,263.06449172323704
mp-bxboy,AlFe2W,Cubic,225,238.376,45.537,128.43282024018455
mp-bxbpa,LiFeRh2,Cubic,225,145.894,65.499,170.91901314636283
mp-bxbpb,BeGaRh2,Cubic,225,200.601,91.436,238.12765485496348
mp-bxbph,LiAlRh2,Cubic,225,147.585,66.739,173.99042547115377
mp-bxbpw,LiBePd2,Cubic,225,124.471,56.945,148.23010111349157
mp-bxbqa,LiBePt2,Cubic,225,165.822,79.648,205.96713284377088
mp-bxbqc,LiAl2Ni,Cubic,225,103.846,69.544,170.55855699298314
mp-bxbqd,Ac2CdSn,Cubic,225,42.615,16.536,43.926380617948354
mp-bxbqf,LiAsPd2,Cubic,225,108.466,35.687,96.47987392996109
mp-bxbqt,LiAsRh2,Cubic,225,160.442,59.369,158.55062444076603
mp-bxbqw,Sc2CuRu,Cubic,225,113.161,46.784,123.35280522540108
mp-bxbqx,Sc2GaAg,Cubic,225,81.21,41.463,106.29826782839284
mp-bxbqy,Sc2GaCu,Cubic,225,85.089,45.774,116.44186331429938
mp-bxbrs,Sc2NiIr,Cubic,225,137.387,49.792,133.27537982435445
mp-bxbrt,Sc2NiOs,Cubic,225,145.388,62.463,163.91478158222478
mp-bxbsj,LiBe2Ir,Cubic,225,139.753,64.707,168.1667231561721
mp-bxbsl,Sc2TcAg,Cubic,225,108.026,42.33,112.31923216741993
mp-bxbud,Sc2TcPd,Cubic,225,123.752,53.036,139.21968749823236
mp-bxbul,Sc2AgOs,Cubic,225,123.096,45.47,121.45534523746376
mp-bxbum,Sc2AgIr,Cubic,225,120.565,37.764,102.58161648629772
mp-bxbuz,TaAlOs2,Cubic,225,268.452,143.473,365.33508584160063
mp-bxbva,TaAlRu2,Cubic,225,240.988,132.422,335.76539296177395
mp-bxbwb,Sc2AgRu,Cubic,225,111.847,37.977,102.34720059274251
mp-bxbwo,Sc2AlOs,Cubic,225,123.137,49.483,130.91305566324652
mp-bxbwu,LiErTl2,Cubic,225,43.284,21.383,55.07902236916057
mp-bxbyt,Sc2AlTc,Cubic,225,109.061,43.786,115.85362796891387
mp-bxbyw,Sc2AlRu,Cubic,225,110.743,39.474,105.84585714401013
mp-bxbyy,Sc2AlZn,Cubic,225,76.171,45.758,114.37189335365387
mp-bxbyz,LiAcTl2,Cubic,225,34.711,6.17,17.474609303464096
mp-bxbzd,Sc2BeRu,Cubic,225,112.509,47.296,124.44950269604469
mp-bxbzf,LiY2Al,Cubic,225,50.306,33.33,81.90206037514653
mp-bxbzl,ScSbRu2,Cubic,225,181.046,100.408,254.2261173435932
mp-bxbzn,Sc2BeTc,Cubic,225,105.286,45.33,118.9229138841822
mp-bxcam,LiDy2Tc,Cubic,225,68.896,31.932,82.97663082725673
mp-bxcay,Be2PtRh,Cubic,225,216.114,113.636,290.0673963500259
mp-bxcba,ScAlCo2,Cubic,225,146.391,94.037,232.35785938560792
mp-bxcbi,LiHfIr2,Cubic,225,174.685,62.733,168.07880690300414
mp-bxcbl,LiAc2Ga,Cubic,225,33.104,19.764,49.450830595586005
mp-bxcbr,LiErIn2,Cubic,225,43.83,20.144,52.40383871691044
mp-bxcbu,BeRu2W,Cubic,225,270.586,117.74,308.4774370251469
mp-bxccd,Ba2SbAu,Cubic,225,31.487,17.679,44.675655939004805
mp-bxcce,LiCa2Al,Cubic,225,29.043,20.041,48.879881188765516
mp-bxcdd,LiCuPd2,Cubic,225,144.978,37.593,103.80660065139136
mp-bxcdi,LaMgZn2,Cubic,225,51.066,28.284,71.62780163321983
mp-bxcdj,LaPbAu2,Cubic,225,71.48,19.936,54.72073727685429
mp-bxcdm,DyGaRh2,Cubic,225,141.67,47.905,129.15706236850176
mp-bxcdn,LiAc2Ge,Cubic,225,38.715,20.637,52.570170746150815
mp-bxcdp,BeFe2Si,Cubic,225,219.307,127.552,320.51696006864654
mp-bxcdt,LiY2Ru,Cubic,225,70.948,29.28,77.21752886950487
mp-bxcdx,LiHoTl2,Cubic,225,42.546,19.632,51.04479967406804
mp-bxcea,DyMgAg2,Cubic,225,65.63,12.356,34.87913040153695
mp-bxcee,LiHf2Os,Cubic,225,145.945,59.172,156.38153559205404
mp-bxcel,Al2FeCo,Cubic,225,179.509,118.533,291.44927810702217
mp-bxcem,DyHoMg2,Cubic,225,43.612,18.839,49.40342884249207
mp-bxceo,Al2IrRh,Cubic,225,211.649,97.627,253.8500032856749
mp-bxcep,Al2CoRu,Cubic,225,185.345,112.686,281.0919352465378
mp-bxces,Ac2SiAu,Cubic,225,56.494,16.796,45.844699943095804
mp-bxcet,ScTaOs2,Cubic,225,235.29,121.918,311.8851396492822
mp-bxceu,AlVOs2,Cubic,225,270.525,140.544,359.3941412785587
mp-bxcew,Sc2AgHg,Cubic,225,79.681,32.127,84.96221330899436
mp-bxcex,Sc2AgAu,Cubic,225,91.964,32.821,87.99484957225643
mp-bxcey,ScZn2Pt,Cubic,225,123.901,29.224,81.28149367840031
mp-bxcez,AlZnIr2,Cubic,225,220.942,108.285,279.2365045110237
mp-bxcfa,BeCo2Ge,Cubic,225,201.076,80.844,213.86943669087464
mp-bxcfe,Sc2CdTc,Cubic,225,100.691,31.014,84.37878411946429
mp-bxcfg,Sc2CoIr,Cubic,225,137.361,60.261,157.7189526891418
mp-bxcfh,BeGeRu2,Cubic,225,227.447,99.655,260.86588302881347
mp-bxcfj,Al2PdRu,Cubic,225,180.532,80.631,210.54740669884143
mp-bxcfl,LiAlAu2,Cubic,225,97.735,36.27,96.83173548827683
mp-bxcfn,LiY2Os,Cubic,225,80.346,34.286,90.04912976711076
mp-bxcfo,Sr2CdIn,Cubic,225,26.36,15.966,39.85200681775141
mp-bxcfp,Sr2CdPb,Cubic,225,27.344,21.316,50.75843108720052
mp-bxcfr,ScTc2Mo,Cubic,225,207.886,80.503,213.8985543391355
mp-bxcft,ScTc2W,Cubic,225,219.455,89.291,235.8814851281873
mp-bxcfv,Pm2ZnPb,Cubic,225,54.069,19.066,51.182007171503756
mp-bxcfw,Pm2ZnRu,Cubic,225,78.796,22.938,62.72723842576525
mp-bxcfy,LiGaRh2,Cubic,225,148.873,59.775,158.15738767639428
mp-bxcgb,Pm2ZnSi,Cubic,225,64.649,27.683,72.6756504218743
mp-bxcgc,Pm2ZnSn,Cubic,225,58.086,21.841,58.22521753808026
mp-bxcgf,LiHgPd2,Cubic,225,97.049,22.7,63.17444710320633
mp-bxcgi,Sr2TlCd,Cubic,225,25.727,15.711,39.16130638806356
mp-bxcgk,Pm2ZnGe,Cubic,225,62.046,26.438,69.44974659415927
mp-bxcgn,Sr2LiPt,Cubic,225,30.834,14.401,37.383084721663565
mp-bxcgp,Sr2PtAu,Cubic,225,45.405,19.997,52.31143615727345
mp-bxcgz,PrDyMg2,Cubic,225,39.675,23.289,58.43360228087189
mp-bxchb,PrMgZn2,Cubic,225,55.055,26.176,67.78514338275644
mp-bxchj,TbMgCd2,Cubic,225,54.108,26.564,68.48462691118547
mp-bxchr,LiInRh2,Cubic,225,125.117,36.12,98.84787593779392
mp-bxchu,AlSiRu2,Cubic,225,230.759,113.371,292.2522085339999
mp-bxchx,AlCrRu2,Cubic,225,230.931,111.317,287.7204799629403
mp-bxcic,Ac2CuGe,Cubic,225,54.864,19.11,51.3661220890355
mp-bxcie,Er2ZnIn,Cubic,225,61.635,31.697,81.17561866926437
mp-bxcig,FeSiTc2,Cubic,225,246.944,108.248,283.3428499175578
mp-bxcil,CaLaAg2,Cubic,225,44.205,19.952,52.02831175811283
mp-bxcin,RbAcTe2,Cubic,225,36.494,17.941,46.244788507569275
mp-bxciv,PrSnAu2,Cubic,225,80.55,17.514,48.991273093485205
mp-bxcjd,PaPbAu2,Cubic,225,102.518,14.015,40.21254514583185
mp-bxcje,PaSiTc2,Cubic,225,200.716,42.399,118.82984352731454
mp-bxcjf,LiScAu2,Cubic,225,82.368,15.743,44.400258766506745
mp-bxcjl,PaSnAu2,Cubic,225,109.742,15.551,44.548738976207815
mp-bxcju,PaTlAu2,Cubic,225,99.51,24.885,68.91070961458189
mp-bxcjv,PaTiTc2,Cubic,225,172.516,49.108,134.556488508019
mp-bxckb,PmAlAg2,Cubic,225,77.247,15.124,42.592318279221445
mp-bxckc,PmAlCu2,Cubic,225,86.005,12.642,36.15453097462841
mp-bxckf,LiPm2Os,Cubic,225,74.575,31.331,82.44692900774733
mp-bxckg,LiPm2Pt,Cubic,225,63.715,20.936,56.607782686803624
mp-bxckh,PaZnRu2,Cubic,225,175.731,34.878,98.14118209621203
mp-bxckk,CaLaHg2,Cubic,225,44.947,22.0,56.742216639781695
mp-bxckn,Ac2NiIr,Cubic,225,71.229,20.391,55.844098339015204
mp-bxclk,PmAgAu2,Cubic,225,83.952,10.746,30.918780999383102
mp-bxclm,PmAgHg2,Cubic,225,66.323,17.984,49.47972827294391
mp-bxcln,ThGaAu2,Cubic,225,100.3,11.401,32.95436998280505
mp-bxcls,PmBiPd2,Cubic,225,90.9,10.223,29.560821495601274
mp-bxclt,CaPmCd2,Cubic,225,42.236,22.358,57.01375492734761
mp-bxclu,CaPmAu2,Cubic,225,66.309,27.483,72.44084723731282
mp-bxclv,CaPmHg2,Cubic,225,48.969,24.664,63.35536159374252
mp-bxclw,CaPmPd2,Cubic,225,67.273,24.337,65.15417238101134
mp-bxclx,CaPmRh2,Cubic,225,83.697,28.891,77.72931918123307
mp-bxcly,CaPmPt2,Cubic,225,87.525,34.909,92.43754966653668
mp-bxclz,LiSc2Os,Cubic,225,98.86,40.992,108.04279407059828
mp-bxcma,CaPmZn2,Cubic,225,44.865,26.906,67.2704144865976
mp-bxcmc,AcAg2Sn,Cubic,225,60.159,10.533,29.856513915501807
mp-bxcmd,PmCdAu2,Cubic,225,79.05,6.423,18.76087805298617
mp-bxcme,PmCdHg2,Cubic,225,60.32,16.513,45.39647161890486
mp-bxcmh,Er2ZnRu,Cubic,225,92.632,33.2,88.97074086455629
mp-bxcmi,PmCdRh2,Cubic,225,111.806,38.736,104.17703657852114
mp-bxcmj,PmCdPt2,Cubic,225,108.292,17.543,49.93268190141318
mp-bxcmk,PmCdPd2,Cubic,225,90.071,19.041,53.36270958742144
mp-bxcmo,PmDyMg2,Cubic,225,40.229,22.558,57.01680364410625
mp-bxcmp,PmGaAg2,Cubic,225,66.067,11.484,32.56513747764504
mp-bxcmx,Ti2CoTc,Cubic,225,187.175,91.654,236.3793646917613
mp-bxcmy,PmHgAu2,Cubic,225,80.514,6.17,18.04895370430177
mp-bxcne,PmHoMg2,Cubic,225,40.038,22.248,56.31340397016058
mp-bxcnj,PmInAg2,Cubic,225,71.516,23.111,62.590756015972474
mp-bxcnn,LiPmHg2,Cubic,225,49.81,11.196,31.246839490493443
mp-bxcno,LiPmTl2,Cubic,225,41.737,15.462,41.28750681367427
mp-bxcnq,Li2PmIn,Cubic,225,38.084,30.714,72.61984040395679
mp-bxcnu,Li2PmTl,Cubic,225,39.836,30.085,72.10360471412433
mp-bxcnw,PmMgAg2,Cubic,225,60.967,5.559,16.185078939828077
mp-bxcny,PmMgHg2,Cubic,225,59.195,24.499,64.58682896716216
mp-bxcoc,NaPmAu2,Cubic,225,59.173,18.208,49.542464023869975
mp-bxcod,NaPmHg2,Cubic,225,43.007,14.658,39.487812791013305
mp-bxcof,NaPmTe2,Cubic,225,44.621,12.633,34.63080109354521
mp-bxcoi,Li2PmPb,Cubic,225,40.01,24.17,60.35627808599168
mp-bxcoj,NaPmTl2,Cubic,225,36.356,18.771,48.04438617323352
mp-bxcoq,PmSnAu2,Cubic,225,83.851,17.853,50.00975155341752
mp-bxcow,CaLaZn2,Cubic,225,42.467,25.998,64.77560866759235
mp-bxcoy,PmSmMg2,Cubic,225,39.146,23.357,58.44666428495329
mp-bxcpa,PmTlAg2,Cubic,225,65.448,18.899,51.7188283382038
mp-bxcpd,PmYMg2,Cubic,225,39.687,22.085,55.88813395349497
mp-bxcpl,Pm2AgIr,Cubic,225,86.836,23.457,64.55798590671387
mp-bxcpn,Pm2AgGe,Cubic,225,64.38,23.361,62.520868818157886
mp-bxcpp,Er2CdIn,Cubic,225,60.36,27.973,72.6899519260666
mp-bxcpx,Pm2AgPt,Cubic,225,78.671,22.251,61.00182677028158
mp-bxcpy,Pm2AgSn,Cubic,225,61.036,21.122,56.812522783136664
mp-bxcqc,Pm2CdGe,Cubic,225,58.544,20.724,55.610181018150705
mp-bxcqe,Pm2CdIn,Cubic,225,52.402,23.145,60.5241923249663
mp-bxczz,Sr2SbAu,Cubic,225,37.562,22.936,57.1713902464202
mp-bxdag,Sr2AsAu,Cubic,225,42.139,25.646,63.962115346928584
mp-bxdpj,Ho2CdIn,Cubic,225,59.553,28.777,74.35454853063113
mp-bxdpk,Ho2CdOs,Cubic,225,97.343,33.714,90.67392735377275
mp-bxdpm,Pm2CdSi,Cubic,225,62.306,21.073,56.813847916496385
mp-bxdpn,Pm2CdSn,Cubic,225,56.296,19.511,52.47119838215702
mp-bxdpr,LiScHg2,Cubic,225,57.209,15.302,42.14813678990419
mp-bxdpw,Pm2CuGe,Cubic,225,66.228,24.887,66.35004595408171
mp-bxdpz,Er2TlAg,Cubic,225,64.936,27.903,73.2212727346202
mp-bxdqa,Pm2CuOs,Cubic,225,92.175,35.405,94.1592757189113
mp-bxdqb,Pm2CuPt,Cubic,225,80.655,26.778,72.32938647704312
mp-bxdqd,Pm2CuRu,Cubic,225,83.241,31.005,82.74195963708642
mp-bxdqe,ErMgCd2,Cubic,225,54.634,25.799,66.87114508621463
mp-bxdqf,LiPm2Rh,Cubic,225,62.498,22.513,60.29873892775003
mp-bxdqg,ErMgHg2,Cubic,225,64.404,25.837,68.3685172358696
mp-bxdqh,LiPm2Ru,Cubic,225,65.347,24.444,65.2020709436016
mp-bxdqi,Pm2CuSn,Cubic,225,61.633,19.596,53.154563250935226
mp-bxdql,ErTaRu2,Cubic,225,185.741,78.278,205.90826132767688
mp-bxdqq,Pm2GeAu,Cubic,225,71.259,22.807,61.82512814476043
mp-bxdqr,Pm2GePd,Cubic,225,73.852,21.327,58.36297491384742
mp-bxdqs,Pm2HgGe,Cubic,225,64.276,21.386,57.75280244988656
mp-bxdqw,Ti2MnCo,Cubic,225,185.408,83.539,217.89192280266286
mp-bxdrc,Pm2MgSi,Cubic,225,54.978,23.108,60.804951106667666
mp-bxdrd,LiPm2Si,Cubic,225,55.755,30.263,76.8793390557288
mp-bxdre,Pm2MgAl,Cubic,225,48.974,29.34,73.36847669945875
mp-bxdri,Er2MgIn,Cubic,225,54.51,28.117,71.9756585284403
mp-bxdrj,Pm2MgSn,Cubic,225,50.105,19.158,50.97687720167814
mp-bxdrk,Pm2MgTl,Cubic,225,45.993,20.753,54.11910995262454
mp-bxdrl,Pm2MgGa,Cubic,225,48.403,26.907,68.10183648818239
mp-bxdrn,KNa2Bi,Cubic,225,16.554,10.679,26.367171475447872
mp-bxdrq,KAcTe2,Cubic,225,37.606,18.514,47.71219014406237
mp-bxdrr,ErGaRh2,Cubic,225,145.122,52.644,140.89511098543062
mp-bxdrt,Pm2NiIr,Cubic,225,97.769,34.119,91.6910220904876
mp-bxdrv,Pm2IrAu,Cubic,225,95.226,26.464,72.66099331714412
mp-bxdrw,Pm2IrPd,Cubic,225,97.934,32.964,88.91582167055323
mp-bxdrx,Pm2NiRu,Cubic,225,89.451,28.709,77.8034175727626
mp-bxdsf,Pm2PdPt,Cubic,225,89.689,26.998,73.6082029216557
mp-bxdsh,LiTiRh2,Cubic,225,154.975,60.474,160.54012921608145
mp-bxdsm,Pm2PtRh,Cubic,225,96.963,33.757,90.74074505461331
mp-bxdsn,Pm2RuAu,Cubic,225,91.146,28.354,77.07024426094794
mp-bxdsq,Ho2OsAu,Cubic,225,113.765,42.631,113.69180892932489
mp-bxdss,ErCdPd2,Cubic,225,101.867,28.245,77.56600568825147
mp-bxdst,ErCdRh2,Cubic,225,125.414,51.651,136.24861034417484
mp-bxdsu,Pm2IrRu,Cubic,225,111.946,38.388,103.35050860175404
mp-bxdsv,Pm2PdRu,Cubic,225,92.259,28.348,77.14288631872184
mp-bxdsx,Pm2SiAg,Cubic,225,67.211,25.639,68.23984239589566
mp-bxdsy,Ca2PdAu,Cubic,225,51.164,22.324,58.4683204258998
mp-bxdtn,CsK2Bi,Cubic,225,10.835,6.6370000000000005,16.534848883552197
mp-bxdto,CsAcTe2,Cubic,225,34.847,16.227,42.13997433922893
mp-bxezt,LiMgTl2,Cubic,225,30.009,13.128,34.37180328631671
mp-bxezu,LiMg2Ag,Cubic,225,44.769,22.76,58.38579688922563
mp-bxezv,TbSnAu2,Cubic,225,88.449,16.179,45.74763019756612
mp-bxezx,LiMg2Rh,Cubic,225,66.418,29.172,76.33944062409708
mp-bxezy,Nd2MgTl,Cubic,225,44.88,19.556,51.227395781991746
mp-bxfad,ZrCdPd2,Cubic,225,132.25,34.849,96.10546421562607
mp-bxfag,Nd2MgAl,Cubic,225,46.7,27.158,68.24491145416063
mp-bxfah,Nd2IrRh,Cubic,225,105.456,22.447,62.879558130543224
mp-bxfai,Nd2MgIn,Cubic,225,46.386,22.87,58.925805292912344
mp-bxfak,LiMg2Pt,Cubic,225,70.501,34.393,88.74755196099163
mp-bxfao,BaHg2Pb,Cubic,225,31.615,8.736,23.99762273003736
mp-bxfaq,CaSmCd2,Cubic,225,42.683,22.585,57.59629296838694
mp-bxfas,Nd2IrPd,Cubic,225,94.942,30.569,82.81849104139253
mp-bxfau,HoZnRh2,Cubic,225,130.834,47.959,128.21114753406093
mp-bxfav,Ho2IrRh,Cubic,225,124.915,34.581,94.9785025505343
mp-bxfaw,HoThTc2,Cubic,225,121.902,24.383,68.5767304230573
mp-bxfay,Pm2SnPd,Cubic,225,67.466,14.374,40.26261028177071
mp-bxfaz,Pm2TlCd,Cubic,225,52.345,19.813,52.779807320410754
mp-bxfba,LiMg2Hg,Cubic,225,42.537,22.643,57.69222529183915
mp-bxfbb,LiNbRh2,Cubic,225,175.191,56.338,152.65082636691866
mp-bxfbd,Nd2SnHg,Cubic,225,57.531,19.66,52.948641321591865
mp-bxfbj,Ta2NbOs,Cubic,225,240.518,104.993,274.96846200639527
mp-bxfbk,Ta2NbIr,Cubic,225,234.508,108.32,281.6023263582658
mp-bxfbu,Ta2OsW,Cubic,225,272.496,131.157,339.0708018784688
mp-bxfbv,Ta2NbRu,Cubic,225,221.392,92.928,244.56566334876055
mp-bxfby,Zn2NiRh,Cubic,225,161.838,59.551,159.13429158357258
mp-bxfcd,Nd2NiIr,Cubic,225,106.997,31.941,87.15084093536431
mp-bxfcf,ZnCuPd2,Cubic,225,150.032,56.792,151.2869827180758
mp-bxfcl,NdTlAu2,Cubic,225,69.742,16.502,45.886829972356104
mp-bxfcm,NdSnAu2,Cubic,225,82.554,18.058,50.49240248381755
mp-bxfco,Ta2VOs,Cubic,225,245.861,94.95,252.36299047605317
mp-bxfcq,NbSiTc2,Cubic,225,245.129,86.818,232.9522268752927
mp-bxfcs,Ho2AlZn,Cubic,225,65.575,41.214,102.22566477122287
mp-bxfdc,Hf2MoIr,Cubic,225,189.709,80.044,210.5232747057401
mp-bxfeh,HfInCo2,Cubic,225,206.086,107.967,275.7470266900754
mp-bxfey,Yb2CdGe,Cubic,225,40.172,26.401,64.97021275958534
mp-bxffa,HfInPd2,Cubic,225,141.693,35.064,97.1761173548223
mp-bxffh,Yb2TlPb,Cubic,225,33.91,16.655,42.935671326603874
mp-bxffj,Yb2TlCd,Cubic,225,33.659,19.632,49.30926706962167
mp-bxffk,HoMgRh2,Cubic,225,113.756,50.305,131.52709768038142
mp-bxffn,HoMgTl2,Cubic,225,47.359,10.455,29.215148985130988
mp-bxffo,Gd2MgIn,Cubic,225,67.859,21.207,57.618746516655996
mp-bxffw,Yb2MgIn,Cubic,225,30.524,17.477,44.028019807609425
mp-bxfgb,Ta2MnOs,Cubic,225,249.914,79.922,216.66920629556057
mp-bxfgc,LiMg2Zn,Cubic,225,40.259,26.795,65.78930383135013
mp-bxfgd,LiYb2Rh,Cubic,225,41.92,20.811,53.568400843277324
mp-bxfge,Ta2FeOs,Cubic,225,247.114,83.08,224.12317973076892
mp-bxfgj,LiYb2Tl,Cubic,225,25.992,16.634,41.12840452383469
mp-bxfgk,Ta2MoOs,Cubic,225,265.254,131.074,337.6121829147767
mp-bxfgl,LiYb2Pd,Cubic,225,33.235,15.65,40.58038013090027
mp-bxfgm,LiSc2Au,Cubic,225,74.156,36.814,94.76095855477818
mp-bxfgp,HoAgHg2,Cubic,225,70.325,16.174,45.06702186670423
mp-bxfgu,PaAlAu2,Cubic,225,123.458,11.963,34.76606367157769
mp-bxfgw,Ta2MoRu,Cubic,225,246.749,118.496,306.4350166883457
mp-bxfgx,Yb2SbAu,Cubic,225,49.015,29.746,74.22324501812874
mp-bxfgy,LiSnRh2,Cubic,225,142.707,67.926,175.87374006495352
mp-bxfhc,NbInRu2,Cubic,225,210.794,96.619,251.44046355766315
mp-bxfhd,Yb2SnHg,Cubic,225,39.222,30.672,72.98975755369494
mp-bxfhj,Ac2SnHg,Cubic,225,45.028,15.851,42.559044966376256
mp-bxfhk,EuCdHg2,Cubic,225,37.559,11.896,32.28000269721368
mp-bxfhm,HfZnIr2,Cubic,225,211.726,86.11,227.48961959716507
mp-bxfhn,HoLuMg2,Cubic,225,43.429,22.812,58.23892469578508
mp-bxfho,Yb2PdAu,Cubic,225,55.635,21.308,56.687025975889014
mp-bxfhs,LiTbHg2,Cubic,225,52.714,4.747,13.825981017748282
mp-bxfht,Nd2CuIr,Cubic,225,86.254,26.005,70.89064895159902
mp-bxfhv,HfZnNi2,Cubic,225,150.532,43.706,119.54800167978324
mp-bxfix,Hf2CoIr,Cubic,225,184.201,26.08,74.71389123233273
mp-bxfiz,Nd2CuRu,Cubic,225,81.88,29.061,77.95978944379526
mp-bxfjb,Zn2PdRh,Cubic,225,156.281,66.416,174.52491235831624
mp-bxfjc,NbZnRu2,Cubic,225,218.128,77.859,208.74088460797844