material_id,formula_pretty,symmetry.crystal_system,symmetry.number,bulk_modulus.vrh,shear_modulus.vrh,youngs_modulus_vrh
mp-bdaxe,Sc2CrB6,Orthorhombic,55,208.603,203.456,460.6172788095482
mp-bexcx,ZrPbO3,Orthorhombic,55,111.123,61.413,155.5784488426524
mp-bkytz,Ca5(InSb3)2,Orthorhombic,55,35.751,19.61,49.73628236759338
mp-mmp,Ca5(AlSb3)2,Orthorhombic,55,39.186,22.791,57.27004206656264
mp-mtz,LuAlB4,Orthorhombic,55,182.221,153.632,359.7837911851434
mp-bkte,H4N2O3,Orthorhombic,56,24.063,10.798,28.17899750563341
mp-flf,NaNbO3,Orthorhombic,57,101.993,59.156,148.7161766798581
mp-bcsrd,Hf(FeSi)2,Orthorhombic,57,181.136,91.29,234.47867956098804
mp-bctwk,Sc(FeSi)2,Orthorhombic,57,172.302,111.219,274.57799839522386
mp-ihv,BaUO4,Orthorhombic,57,90.551,40.544,105.83605126250413
mp-bgmtb,CaAlPd,Orthorhombic,57,62.104,28.522,74.20600366794828
mp-brspq,SrNb2O4,Orthorhombic,57,147.015,72.302,186.35602578762513
mp-cjlcf,Mg(BC)2,Orthorhombic,58,145.308,118.054,278.68925424475344
mp-fnbaf,Tm(CuTe)3,Orthorhombic,58,54.308,29.553,75.04625963621628
mp-fyqjn,Er(CuTe)3,Orthorhombic,58,53.642,29.57,74.93986991852847
mp-bpgt,Bi2SO2,Orthorhombic,58,43.238,25.849,64.66146550272238
mp-bpus,LiRuO2,Orthorhombic,58,196.978,103.758,264.78265175934087
mp-hav,Al2SiO5,Orthorhombic,58,142.634,88.811,220.63933666464752
mp-brpwg,LiCuS2,Orthorhombic,58,46.834,21.639,56.25331245027476
mp-cesvr,LiCuO2,Orthorhombic,58,78.449,43.139,109.36960098173697
mp-cgowe,Li5OsN4,Orthorhombic,59,70.247,38.982,98.69061714779976
mp-cgpba,Na5OsN4,Orthorhombic,59,39.663,14.17,37.98633505808845
mp-swt,Zn2CuAu,Orthorhombic,59,112.113,31.739,87.00653275392717
mp-biai,TiClO,Orthorhombic,59,22.827,12.826,32.408180328876966
mp-bias,TiBrO,Orthorhombic,59,25.612,14.541,36.6811870383138
mp-bicq,ZrIN,Orthorhombic,59,19.161,15.301,36.253052168058915
mp-bohe,MgCu2O3,Orthorhombic,59,98.437,54.6,138.24070063530442
mp-bopy,BaLi2Si,Orthorhombic,59,27.21,16.167,40.48321144820394
mp-bpfc,TiIN,Orthorhombic,59,24.065,17.04,41.35830559757942
mp-bpfd,TiBrN,Orthorhombic,59,27.742,19.671,47.73138126475991
mp-bpfe,TiNCl,Orthorhombic,59,30.511,21.367,51.969502506643046
mp-bpfr,AlClO,Orthorhombic,59,32.289,20.406,50.56580803765572
mp-bsfy,Tl2Au4S3,Orthorhombic,59,18.684,7.562,19.989242493790677
mp-bslx,NaCN,Orthorhombic,59,18.145,11.602,28.69095522207247
mp-evf,SrCu2O3,Orthorhombic,59,96.392,42.367,110.85910055709213
mp-frq,Li5ReN4,Orthorhombic,59,71.86,46.271,114.28372066556936
mp-bfcct,ScBrO,Orthorhombic,59,22.781,13.41,33.63104583318044
mp-bgitm,HfBrN,Orthorhombic,59,25.147,18.845,45.23531526419617
mp-bgked,Be(BC)2,Orthorhombic,59,194.761,153.362,364.4306249456039
mp-bglld,ZrBrN,Orthorhombic,59,22.365,16.412,39.5594311854096
mp-bilai,Te2Pd3Pb2,Orthorhombic,59,33.635,16.154,41.774302787483236
mp-lbe,CaCu2O3,Orthorhombic,59,77.591,29.185,77.80041081012986
mp-bqvzv,TiOF,Orthorhombic,59,38.582,27.664,66.98272109336865
mp-bqxkk,ZnCu2O3,Orthorhombic,59,90.85,35.895,95.15325827943396
mp-bqxoj,TmClO,Orthorhombic,59,17.642,13.897,33.02063460185864
mp-bqyvq,CdCu2O3,Orthorhombic,59,75.269,27.57,73.7103090256811
mp-bqzwz,ErClO,Orthorhombic,59,19.511,12.683,31.272777423612666
mp-cgoxe,Ca7SiN6,Orthorhombic,60,79.323,54.329,132.6928456677774
mp-zkr,Nb2ZnO6,Orthorhombic,60,143.453,58.521,154.54736769145802
mp-bpyy,Rb2CdO2,Orthorhombic,60,36.278,14.225,37.74198514533679
mp-gwp,Nb2CuO6,Orthorhombic,60,105.183,54.339,139.068721702245
mp-xpw,Li5AlO4,Orthorhombic,61,80.916,54.227,132.97579724892668
mp-isf,CoSbS,Orthorhombic,61,118.332,79.673,195.2078223291746
mp-blkkg,MgSiO3,Orthorhombic,61,67.946,54.694,129.36946573731686
mp-cfpwh,BaBrCl,Orthorhombic,62,29.178,12.482,32.77273800191969
mp-pdw,ScNiP,Orthorhombic,62,147.371,92.423,229.32829481456815
mp-cgoop,LiRuN,Orthorhombic,62,104.541,58.104,147.06559484783187
mp-cgorw,KZnN,Orthorhombic,62,36.495,12.387,33.38397732867271
mp-cgovc,RbCoN,Orthorhombic,62,39.714,18.619,48.30768282750561
mp-cgozo,MgZrN2,Orthorhombic,62,149.501,69.353,180.19504587568744
mp-cgpcf,Na2MnN2,Orthorhombic,62,44.14,22.139,56.90344231005635
mp-cgpfy,MgTiN2,Orthorhombic,62,161.671,77.978,201.5325842544552
mp-cgpla,HfMgN2,Orthorhombic,62,157.33,75.632,195.55942427440826
mp-cgpnr,LiNbN2,Orthorhombic,62,110.992,59.002,150.36239241998277
mp-pme,HfSiPt,Orthorhombic,62,192.495,100.864,257.5994674127919
mp-pmf,HfSiPd,Orthorhombic,62,169.282,93.146,236.128718099409
mp-pmr,NbSiPt,Orthorhombic,62,215.103,82.355,219.10286627481918
mp-pms,NbSiRh,Orthorhombic,62,221.086,113.62,291.00852628083175
mp-ckthy,SmAsS,Orthorhombic,62,79.756,52.875,129.91544038364773
mp-ckxtl,NaNbO3,Orthorhombic,62,111.184,84.477,202.21663308526442
mp-rgb,Ca3SiO,Orthorhombic,62,58.542,46.042,109.4362599743761
mp-sma,ScPPt,Orthorhombic,62,149.536,69.61,180.7787622969484
mp-srd,LaNiSn,Orthorhombic,62,73.286,31.135,81.81836342049381
mp-cyhjq,YCuO3,Orthorhombic,62,118.951,56.266,145.80804246234135
mp-cyoks,CaTi2O4,Orthorhombic,62,155.411,86.945,219.83861352946067
mp-txr,NaCdSb,Orthorhombic,62,32.293,13.704,36.01719475868805
mp-tye,HfSiRh,Orthorhombic,62,189.725,98.602,252.12815064010894
mp-upg,LiCaSi2,Orthorhombic,62,47.84,36.127,86.58558795860772
mp-woa,CrSbSe3,Orthorhombic,62,31.363,19.498,48.45309732627854
mp-xdp,CaMgGe,Orthorhombic,62,46.805,37.809,89.36423941220038
mp-xdq,SrMgSi,Orthorhombic,62,43.089,33.218,79.28100204941995
mp-xdr,SrMgGe,Orthorhombic,62,39.991,31.634,75.0999468758039
mp-ybd,BaCaSi,Orthorhombic,62,31.094,18.718,46.769262749999996
mp-yfc,TiNiGe,Orthorhombic,62,158.126,83.324,212.62469457882526
mp-yqg,PrMgRh,Orthorhombic,62,72.105,27.733,73.74447520569724
mp-zol,SrY2O4,Orthorhombic,62,112.287,62.641,158.4571033511722
mp-babk,Ba2SiO4,Orthorhombic,62,71.162,30.552,80.18125380473532
mp-bbbw,Ca3AlSb3,Orthorhombic,62,37.606,23.128,57.57995168669912
mp-bbkb,Ba2MnSe3,Orthorhombic,62,35.573,19.958,50.44083303204212
mp-bdet,PbCN2,Orthorhombic,62,22.297,6.787,18.485404747685873
mp-bdeu,YSiRh,Orthorhombic,62,124.598,62.797,161.29380920357954
mp-bdhx,MnCoSi,Orthorhombic,62,160.562,85.796,218.4742356021865
mp-bdld,PbCO3,Orthorhombic,62,57.971,21.437,57.2537442692603
mp-bdnz,LuMnSi,Orthorhombic,62,103.621,55.573,141.43470755329716
mp-bdph,SrSnPt,Orthorhombic,62,69.787,28.578,75.43679671680557
mp-bdpn,MnNiGe,Orthorhombic,62,142.033,60.689,159.3682807156298
mp-bdqx,ErGeRh,Orthorhombic,62,122.853,56.481,146.92674251129307
mp-bdrn,ZrMnGe,Orthorhombic,62,81.216,68.296,160.03049080604214
mp-bdsl,ScCuSi,Orthorhombic,62,110.432,61.217,155.0084753778856
mp-bduu,NbCrP,Orthorhombic,62,214.246,115.435,293.57862003790694
mp-bdux,ZrMnP,Orthorhombic,62,174.291,111.101,274.89319675412554
mp-bdwq,HfMnSi,Orthorhombic,62,163.306,85.586,218.57426854374603
mp-bdxb,MnCuP,Orthorhombic,62,104.956,25.421,70.56583752046055
mp-bdyv,MnCoP,Orthorhombic,62,201.268,108.089,275.03250020438463
mp-bdzb,TiCuSi,Orthorhombic,62,147.728,77.37,197.61146440138776
mp-bdzo,TiGePd,Orthorhombic,62,150.678,68.935,179.44041079219681
mp-beab,DySiIr,Orthorhombic,62,146.12,72.446,186.51363860252224
mp-beel,VAsRh,Orthorhombic,62,183.377,76.499,201.4800027240955
mp-bega,TaSiRh,Orthorhombic,62,234.349,118.177,303.51275164510537
mp-beib,SrPbO3,Orthorhombic,62,105.376,50.244,130.0607188758966
mp-beie,ScSiRh,Orthorhombic,62,147.712,73.9,190.01239991025773
mp-bejl,CuSO4,Orthorhombic,62,63.477,28.551,74.48551224758201
mp-bekr,YSiNi,Orthorhombic,62,104.111,62.677,156.60458740566915
mp-beqb,ZrNiSb,Orthorhombic,62,133.345,55.766,146.82954936474468
mp-berl,ErSiIr,Orthorhombic,62,151.348,78.089,199.88898592645072
mp-betd,SmCoGe,Orthorhombic,62,100.361,52.148,133.3479475244245
mp-bexo,ZrFeP,Orthorhombic,62,195.86,119.784,298.49985037406486
mp-bezc,NbNiP,Orthorhombic,62,215.347,97.397,253.9113763770482
mp-bezt,MnSiNi,Orthorhombic,62,162.799,86.459,220.36640248862324
mp-bfbv,Y2ReC2,Orthorhombic,62,122.595,74.404,185.6537033259534
mp-bfej,YSiRu,Orthorhombic,62,131.731,50.299,133.85972839242905
mp-bfht,TmNiGe,Orthorhombic,62,108.787,61.869,156.02834950158413
mp-bflg,NbSiIr,Orthorhombic,62,244.124,121.83,313.36222846586634
mp-bfms,MnCoGe,Orthorhombic,62,145.917,63.269,165.8380983932777
mp-bfnm,TiCoSi,Orthorhombic,62,185.534,100.664,255.74021961275955
mp-bfnw,TaSiIr,Orthorhombic,62,258.184,125.054,323.0108263217453
mp-bfoq,TaFeP,Orthorhombic,62,254.448,143.287,361.924327740834
mp-bfou,HfGePt,Orthorhombic,62,176.04,79.095,206.37657864183194
mp-bfpb,CoBMo,Orthorhombic,62,299.575,177.92,445.55397182915436
mp-bfpz,VCoSi,Orthorhombic,62,216.773,113.415,289.71839430351406
mp-bfsz,NbCoP,Orthorhombic,62,233.807,118.544,304.21756181300424
mp-bftf,EuAlO3,Orthorhombic,62,177.251,105.877,264.8891004861754
mp-bfto,CoReB,Orthorhombic,62,352.135,122.896,330.2666975097961
mp-bfuo,CeSnPd,Orthorhombic,62,77.982,32.062,84.59268125770653
mp-bfut,CrFeP,Orthorhombic,62,238.171,144.123,359.7953862835939
mp-bfzd,SrCuN,Orthorhombic,62,67.221,34.378,88.11313221855526
mp-bgil,MnSiIr,Orthorhombic,62,163.928,77.404,200.6334395805955
mp-bgpo,ZrSbPd,Orthorhombic,62,129.477,35.872,98.51778209439952
mp-bgwc,TbCoSi,Orthorhombic,62,110.589,62.194,157.12659474922643
mp-bgwi,NaSbO3,Orthorhombic,62,128.735,94.186,227.15936058335816
mp-bgwq,LaLuO3,Orthorhombic,62,146.049,71.956,185.41729140193254
mp-bgwx,ZrMnSi,Orthorhombic,62,146.187,81.493,206.168887690509
mp-bgyc,HfSiMo,Orthorhombic,62,188.59,103.44,262.35374008158874
mp-bgyg,CoMoP,Orthorhombic,62,244.767,123.348,316.8238746200369
mp-bgym,ZrPRu,Orthorhombic,62,208.218,108.505,277.3399041817668
mp-bgyt,YSnPt,Orthorhombic,62,108.198,41.035,109.28877186984619
mp-bgzc,SrInPt,Orthorhombic,62,62.337,26.962,70.69383401644131
mp-bgzf,NbGeIr,Orthorhombic,62,223.174,94.126,247.57255085589173
mp-bgzu,ZrVP,Orthorhombic,62,177.538,107.666,268.6844142750047
mp-bgzz,ScSi2Rh,Orthorhombic,62,140.355,85.12,212.4186975117793
mp-bhde,SrRuO3,Orthorhombic,62,166.165,71.269,187.06292511460887
mp-bhec,CuSeO3,Orthorhombic,62,27.12,28.384,63.12843271613938
mp-bheo,ScSiNi,Orthorhombic,62,134.315,71.704,182.61558507444448
mp-bhew,HfFeP,Orthorhombic,62,216.434,126.335,317.2730343059962
mp-bhfc,LuSiIr,Orthorhombic,62,158.407,84.508,215.24689412912318
mp-bhgz,HfCuSi,Orthorhombic,62,153.001,87.244,219.92939676739638
mp-bhig,ZrCuSi,Orthorhombic,62,145.249,85.05,213.4821188486109
mp-bhje,CoAsRh,Orthorhombic,62,195.109,63.555,171.99024237842937
mp-bhjx,MnSiRh,Orthorhombic,62,154.446,70.41,183.36534420737877
mp-bhlx,YNiSn,Orthorhombic,62,88.056,43.823,112.76271966388629
mp-bhmq,TaNiGe,Orthorhombic,62,196.746,73.151,195.25421707927023
mp-bhmr,HfNbP,Orthorhombic,62,179.549,100.086,253.20919840684604
mp-bhny,HoGeRh,Orthorhombic,62,120.656,55.178,143.63798505079754
mp-bhpd,ScFeSi,Orthorhombic,62,126.32,60.573,156.67590883960932
mp-bhpy,NbSiPd,Orthorhombic,62,194.818,82.78,217.52984164476032
mp-bhrj,CoBW,Orthorhombic,62,325.769,195.015,487.7231458720385
mp-bhsz,LuSiRh,Orthorhombic,62,137.113,70.8,181.20999047992385
mp-bhzn,SbSBr,Orthorhombic,62,7.311,3.768,9.646730944321233
mp-bhzy,CuBiS2,Orthorhombic,62,49.799,22.669,59.04735263794125
mp-bibd,U(ClO)2,Orthorhombic,62,24.898,15.1,37.68223043855937
mp-biuw,KClO4,Orthorhombic,62,16.231,8.709,22.16302587017874
mp-fyssc,Ca2SiO4,Orthorhombic,62,99.117,45.967,119.4373736623189
mp-bond,CsSnI3,Orthorhombic,62,9.875,4.784,12.356592751896306
mp-boov,Sr(HO)2,Orthorhombic,62,41.76,25.359,63.26998028399019
mp-bpft,KMgCl3,Orthorhombic,62,31.053,15.706,40.32026603591605
mp-bplw,YSiPd2,Orthorhombic,62,126.394,50.1,132.7590129565181
mp-bpmv,BaBrCl,Orthorhombic,62,15.233,5.971,15.842968589123284
mp-bpvi,KCuS,Orthorhombic,62,16.721,5.768,15.519489227798537
mp-egs,Li3PO4,Orthorhombic,62,70.849,42.146,105.5153364481945
mp-egt,SrSnO3,Orthorhombic,62,137.515,74.953,190.28684457167006
mp-ehg,BaNd2O4,Orthorhombic,62,97.689,48.593,125.04540828016154
mp-ehj,Mg2SiO4,Orthorhombic,62,119.124,74.609,185.16902975825326
mp-brlc,NaTi2O4,Orthorhombic,62,143.935,77.985,198.16579135526393
mp-brlu,KGaSb4,Orthorhombic,62,21.147,13.849,34.10251296416095
mp-brps,Cu3SbSe3,Orthorhombic,62,51.967,17.901,48.171778247661116
mp-ejr,NaMgF3,Orthorhombic,62,69.146,41.752,104.2692488783659
mp-bsmb,LiCN,Orthorhombic,62,23.889,8.104,21.842124381040726
mp-bspw,LiMgN,Orthorhombic,62,96.016,79.534,186.97550178191534
mp-bsru,CsClO4,Orthorhombic,62,12.446,5.747,14.94126628757108
mp-bsrx,LiBH4,Orthorhombic,62,15.533,7.936,20.34343067754653
mp-bsvl,LiClO4,Orthorhombic,62,30.023,18.037,45.082822960797735
mp-emp,BaSi2O5,Orthorhombic,62,58.4,34.2,85.84297994269343
mp-emq,RbBF4,Orthorhombic,62,16.78,8.554,21.93474853125955
mp-btar,CaSnPd,Orthorhombic,62,66.403,24.277,64.91946108033615
mp-btee,MnTlCl3,Orthorhombic,62,34.135,12.796,34.12403659690454
mp-eon,BeAl2O4,Orthorhombic,62,214.562,147.365,359.73706141576207
mp-epi,TaCuS3,Orthorhombic,62,39.914,25.486,63.040418073649704
mp-buau,LaScO3,Orthorhombic,62,153.924,79.013,202.40571226642749
mp-buaw,SmScO3,Orthorhombic,62,162.11,81.837,210.1483624180919
mp-buax,TbScO3,Orthorhombic,62,163.461,82.231,211.2663214992997
mp-buay,DyScO3,Orthorhombic,62,164.678,82.262,211.55912018129567
mp-buce,CaGaPt,Orthorhombic,62,81.877,24.132,65.91972166679642
mp-bucf,CaGePt,Orthorhombic,62,89.711,35.644,94.42618687105654
mp-buoi,LiCaN,Orthorhombic,62,69.668,40.787,102.38134458006894
mp-ers,BaSO4,Orthorhombic,62,51.775,20.306,53.87481908091396
mp-esy,NdGaO3,Orthorhombic,62,161.789,76.582,198.4363826290286
mp-ezs,Rb2SO4,Orthorhombic,62,25.157,13.378,34.09102087811906
mp-ezy,SrHfO3,Orthorhombic,62,155.349,92.483,231.50819849068088
mp-fdo,PbSO4,Orthorhombic,62,38.265,20.584,52.36278034259375
mp-fpw,YAlO3,Orthorhombic,62,190.06,111.803,280.4226844657418
mp-fpz,NaZnF3,Orthorhombic,62,68.824,30.263,79.18299536612668
mp-fra,SrCO3,Orthorhombic,62,60.547,29.338,75.77508175695212
mp-fur,Cd2GeO4,Orthorhombic,62,99.731,33.82,91.15596622354082
mp-fwa,BaY2O4,Orthorhombic,62,113.773,59.353,151.6824729978636
mp-fxn,UMoC2,Orthorhombic,62,255.507,145.732,367.3541387268664
mp-fyp,CaTiO3,Orthorhombic,62,172.274,102.365,256.32555607595117
mp-fzy,YAl3Ni,Orthorhombic,62,96.501,59.711,148.50361354069423
mp-gaa,CaSc2O4,Orthorhombic,62,144.156,82.699,208.2703538774805
mp-gce,Tl2SO4,Orthorhombic,62,23.802,8.835,23.58664560511459
mp-gfg,Ca3AsN,Orthorhombic,62,59.9,45.452,108.8294716458215
mp-gjs,PrAgAs2,Orthorhombic,62,74.255,42.754,107.60918966251
mp-gln,YTiO3,Orthorhombic,62,184.267,77.988,205.03771176098508
mp-gmt,SrZrO3,Orthorhombic,62,145.804,82.978,209.24060571494456
mp-gos,CaSnO3,Orthorhombic,62,143.373,77.611,197.24242634274125
mp-gpw,CuSbS2,Orthorhombic,62,46.586,26.263,66.32530259425013
mp-gpz,ScAlO3,Orthorhombic,62,205.767,116.509,294.0316520993173
mp-gqj,Ca2SiO4,Orthorhombic,62,89.257,49.717,125.79471482701709
mp-grb,MgAlSi,Orthorhombic,62,67.736,39.357,98.91357684744294
mp-grc,ZrNbP,Orthorhombic,62,173.675,100.233,252.18459396096307
mp-gsf,K2SO4,Orthorhombic,62,28.688,16.186,40.87135170660147
mp-gtv,CaZrO3,Orthorhombic,62,149.043,85.19,214.66969717406295
mp-gvy,CaCO3,Orthorhombic,62,71.259,33.183,86.1730100947522
mp-hcf,PrRhO3,Orthorhombic,62,178.185,61.536,165.55044353966088
mp-hfc,CaMgSn,Orthorhombic,62,40.739,28.662,69.65151520092259
mp-hkw,CuAgS,Orthorhombic,62,43.849,16.322,43.561060141070804
mp-bcsyp,K2PbO3,Orthorhombic,62,38.231,19.096,49.111157000949255
mp-bctja,Ta3SiTe6,Orthorhombic,62,20.916,15.495,37.2792553966489
mp-bctly,CeGeRh,Orthorhombic,62,109.376,29.558,81.34627095273507
mp-bctvw,TiAsRh,Orthorhombic,62,176.642,76.463,200.4640506572514
mp-hmm,Mn2SiS4,Orthorhombic,62,57.588,26.202,68.25430970115498
mp-bcufe,Cs2SO4,Orthorhombic,62,21.231,10.568,27.192239156488597
mp-bcugs,TiSiRu,Orthorhombic,62,189.963,75.142,199.1653078906285
mp-bdbbd,TiSiNi,Orthorhombic,62,176.474,104.824,262.4981398132586
mp-hpe,ZnSO4,Orthorhombic,62,71.11,32.925,85.56849911676919
mp-hqk,KNO3,Orthorhombic,62,17.312,8.418,21.731645690426483
mp-hqp,LaRhO3,Orthorhombic,62,173.36,58.779,158.4312362077812
mp-hrm,ScNiSn,Orthorhombic,62,93.391,38.313,101.11215076015901
mp-hrt,SrZrS3,Orthorhombic,62,69.284,36.069,92.20625269656979
mp-hsx,GdAlO3,Orthorhombic,62,184.501,108.981,273.1597009573061
mp-htz,Ca4CN4,Orthorhombic,62,66.517,33.929,86.99544987579237
mp-hvh,SrSO4,Orthorhombic,62,60.595,25.048,66.04387133581197
mp-hwb,CuAsS,Orthorhombic,62,66.107,30.222,78.67653695803415
mp-betyx,BaZrS3,Orthorhombic,62,69.975,33.616,86.92793574798495
mp-bewau,YbMgGe,Orthorhombic,62,48.382,40.06,94.18510350636589
mp-icn,CaMgSi,Orthorhombic,62,50.491,40.749,96.33194863751287
mp-ids,BaCO3,Orthorhombic,62,51.872,21.914,57.62691979947052
mp-bfnlj,CaCO3,Orthorhombic,62,72.622,29.508,77.96441737611875
mp-bfqpn,SrDy2O4,Orthorhombic,62,113.78,63.877,161.42295495993503
mp-bfqpw,KClO3,Orthorhombic,62,15.73,8.247,21.060443205801178
mp-bftcb,K3PO4,Orthorhombic,62,36.838,19.669,50.091790771452494
mp-bfxbp,SrEr2O4,Orthorhombic,62,120.303,68.24,172.16698740996713
mp-iiv,SrZnO2,Orthorhombic,62,92.231,50.077,127.20833027205678
mp-bghtx,CsPbBr3,Orthorhombic,62,11.602,5.511,14.273075824094057
mp-bgiwm,CaAlAu,Orthorhombic,62,66.363,29.879,77.93988982303206
mp-ikw,GdScO3,Orthorhombic,62,162.616,80.921,208.22415431220756
mp-iky,TbRhO3,Orthorhombic,62,185.684,68.207,182.2997146654426
mp-bgkcx,Ca2CdSb2,Orthorhombic,62,28.687,19.747,48.18482251814607
mp-bgkmh,NiTePd,Orthorhombic,62,120.245,37.576,102.0934271963365
mp-bgkqu,CaCdAu,Orthorhombic,62,53.32,22.156,58.38158799885787
mp-bgmfp,CaInPt,Orthorhombic,62,72.999,28.849,76.47302501956861
mp-bgnim,K2CuBr3,Orthorhombic,62,15.253,7.497,19.3248773659306
mp-ioq,NaUO3,Orthorhombic,62,83.733,53.954,133.24323384662776
mp-isy,Ba2ZrF8,Orthorhombic,62,48.085,23.193,59.941705156227606
mp-itn,TlNO3,Orthorhombic,62,21.657,8.29,22.055783704836134
mp-bjiad,CaInPd,Orthorhombic,62,60.927,22.758,60.714462919445936
mp-bjoui,AlHO2,Orthorhombic,62,144.446,113.213,269.28591290108335
mp-bmhaz,TiSiRh,Orthorhombic,62,187.886,89.044,230.6888731090145
mp-bnppe,K2ZnH4,Orthorhombic,62,16.778,11.148,27.379888357568067
mp-klu,ScNiGe,Orthorhombic,62,124.163,63.254,162.21547475920437
mp-kwu,MgCuP,Orthorhombic,62,91.308,48.485,123.58096523360079
mp-kyv,SmAlO3,Orthorhombic,62,179.771,110.879,275.9115128777346
mp-kzr,Ba(ZnAs)2,Orthorhombic,62,51.414,28.814,72.83556378376015
mp-bqwlk,BiOF,Orthorhombic,62,44.218,27.419,68.1671492256658
mp-bqwrc,LiCuS,Orthorhombic,62,38.109,15.988,42.07942468633695
mp-bqwuv,LiCuS,Orthorhombic,62,26.248,16.527,40.98000717951948
mp-bqwwu,SbOF,Orthorhombic,62,19.518,13.074,32.062950075389516
mp-brbhe,DyAlO3,Orthorhombic,62,191.925,113.32,284.0544032390309
mp-brwfb,SrSc2O4,Orthorhombic,62,141.067,81.465,204.94388049720013
mp-bsgan,CeScO3,Orthorhombic,62,160.352,87.319,221.71275406553775
mp-lnh,CaZrS3,Orthorhombic,62,68.832,36.572,93.20813573156484
mp-lrv,BaCdO2,Orthorhombic,62,78.484,36.031,93.7469861317283
mp-mlu,ZrCoP,Orthorhombic,62,199.308,115.332,290.0491721121168
mp-mol,CaSbPt,Orthorhombic,62,81.669,35.587,93.22078279293214
mp-bxatu,CaMgPb,Orthorhombic,62,36.51,25.863,62.767817907868206
mp-mys,NaLiTe,Orthorhombic,62,24.832,15.62,38.73765546628789
mp-nhn,CaSiPt,Orthorhombic,62,102.152,40.756,107.91609220879464
mp-nqv,ScSiPt,Orthorhombic,62,149.146,61.333,161.81768332314536
mp-omz,HfCoAs,Orthorhombic,62,177.383,92.377,236.1390630958519
mp-cearq,AgAsS,Orthorhombic,62,46.738,14.032,38.266461003850985
mp-owv,VCoB3,Orthorhombic,63,296.493,203.341,496.51603010285316
mp-cfsit,Ti2ZnN,Orthorhombic,63,147.64,95.909,236.51296207145492
mp-cfsjs,Hf3ZnN,Orthorhombic,63,149.253,92.143,229.25192462891414
mp-cfsjx,Ti3ZnN,Orthorhombic,63,145.73,94.61,233.33515927040241
mp-cgild,LuAlGe,Orthorhombic,63,84.386,58.396,142.3517069400489
mp-cgiwc,LaSi2Ag,Orthorhombic,63,87.646,55.061,136.5818372196139
mp-cgiwf,TmSi2Ni,Orthorhombic,63,116.907,64.624,163.70723545967806
mp-cgiwu,TmCoSi2,Orthorhombic,63,123.961,57.852,150.19145740514503
mp-cgiwz,ThSi2Ni,Orthorhombic,63,132.143,76.034,191.39328954436647
mp-cgixg,SmSi2Ni,Orthorhombic,63,101.226,68.458,167.59347542833805
mp-cgiyn,SmSi2Rh,Orthorhombic,63,122.727,44.065,118.06466841400523
mp-cgjam,TmGa2Ni,Orthorhombic,63,100.012,56.193,141.9866682499179
mp-cgjci,LuGa2Ni,Orthorhombic,63,103.459,57.495,145.52718566512266