material_id,formula_pretty,symmetry.crystal_system,symmetry.number,bulk_modulus.vrh,shear_modulus.vrh,youngs_modulus_vrh
mp-qhz,ScAuO2,Hexagonal,194,134.634,43.218,117.12182391304349
mp-qon,VAuS2,Hexagonal,194,104.417,51.636,132.98661204153618
mp-rdn,Zr2SN2,Hexagonal,194,159.854,68.795,180.49264141790843
mp-ria,BaCuSb,Hexagonal,194,43.743,29.179,71.61359142312104
mp-rmm,BaCdGe,Hexagonal,194,34.647,23.72,57.93814524404477
mp-rmo,BaZnGe,Hexagonal,194,39.873,29.175,70.36340830275414
mp-rmp,BaSnHg,Hexagonal,194,30.976,19.584,48.52554266211604
mp-cplgz,Li2ZnSi,Hexagonal,194,52.049,42.979,101.10746833160914
mp-rsr,LiSnAu,Hexagonal,194,58.955,14.507,40.22188023848839
mp-rur,Li2CuP,Hexagonal,194,58.571,47.499,112.1739662786947
mp-sno,SrNi2Ge,Hexagonal,194,69.921,31.853,82.96115537464406
mp-snp,SrNi3Ge2,Hexagonal,194,92.315,27.896,76.0297110952923
mp-sof,Ti2GaC,Hexagonal,194,138.904,110.605,262.21664061655514
mp-soz,SrCuAs,Hexagonal,194,57.771,39.629,96.76185360802472
mp-spn,HfBeSi,Hexagonal,194,147.205,117.352,278.1438089189523
mp-syw,Ba3SbN,Hexagonal,194,26.349,7.698,21.04457222894691
mp-tfq,Ti2AlC,Hexagonal,194,137.103,115.936,271.32843492494004
mp-tgh,PrCrGe3,Hexagonal,194,88.559,62.104,151.0118439567882
mp-tis,Sc2AlC,Hexagonal,194,86.185,56.9,139.91009335721418
mp-tit,Sc2TlC,Hexagonal,194,80.643,55.047,134.53072635162437
mp-tlh,Hf2CS,Hexagonal,194,178.939,126.437,307.0024350957551
mp-tme,YZnGe,Hexagonal,194,76.81,54.248,131.731640379657
mp-tqq,SrLiP,Hexagonal,194,44.645,36.89,86.7705924191424
mp-tqr,BaLiP,Hexagonal,194,39.363,29.534,70.87595820434485
mp-tsa,ScTlS2,Hexagonal,194,50.088,28.849,72.60722788407318
mp-dbzwy,YBiO3,Hexagonal,194,119.883,36.082,98.37633557643954
mp-dciww,AlCuO3,Hexagonal,194,187.703,33.469,94.77400333736743
mp-dedbm,YTiO3,Hexagonal,194,141.445,43.928,119.42127317340895
mp-vwz,Mg2SiPt,Hexagonal,194,98.07,57.571,144.44751629564985
mp-xfi,Li2CuAs,Hexagonal,194,51.282,37.96,91.34220243370905
mp-xfr,YAsPt,Hexagonal,194,111.197,47.4,124.50855846988513
mp-xkl,Mn3Al9Si,Hexagonal,194,114.667,64.797,163.57882962000792
mp-yav,CaSbAu,Hexagonal,194,52.219,22.259,58.46925087191755
mp-ybe,BaCuP,Hexagonal,194,56.726,37.446,92.07729435903363
mp-ybn,CaZnGe,Hexagonal,194,49.099,37.699,90.04977842223616
mp-ybq,CaZnSi,Hexagonal,194,54.426,41.666,99.58536694902021
mp-ydt,SrCuP,Hexagonal,194,65.501,46.074,111.96872607872965
mp-yjx,TiAlAu,Hexagonal,194,130.385,54.244,142.9132877711894
mp-yoz,AlAuO2,Hexagonal,194,172.084,71.746,188.9752141605924
mp-ytp,Sc2GaC,Hexagonal,194,86.195,53.796,133.59492408309083
mp-yuu,RbYTe2,Hexagonal,194,26.11,15.968,39.79215168932533
mp-bdev,EuAsAu,Hexagonal,194,55.073,28.196,72.25677828503478
mp-bdij,Cr2GeC,Hexagonal,194,202.882,80.367,212.9787961127004
mp-bdix,Nb2InC,Hexagonal,194,161.184,99.016,246.56032342318838
mp-bdpk,Zr2InC,Hexagonal,194,118.251,85.132,205.96859903838504
mp-bdwv,Cr2GaC,Hexagonal,194,183.799,120.232,296.12582588303957
mp-bdwz,NdZnSn,Hexagonal,194,61.258,43.259,105.04921486303752
mp-bdyj,CoNiSn,Hexagonal,194,160.052,49.515,134.6586334158374
mp-bebx,InAgO2,Hexagonal,194,108.417,31.048,85.02740435420812
mp-bekz,MnCoGe,Hexagonal,194,149.075,63.031,165.73468401155498
mp-bess,CeCuGe,Hexagonal,194,81.668,43.907,111.70281465226316
mp-bfbf,YZnSn,Hexagonal,194,63.26,42.778,104.72753687252212
mp-bfcp,Ti3SnC2,Hexagonal,194,157.86,116.018,279.5657606029871
mp-bfdg,Zr2Fe3Ge,Hexagonal,194,158.937,87.954,222.76930065071312
mp-bffe,MnNiGe,Hexagonal,194,116.642,56.472,145.87439705904066
mp-bgts,Ta2InC,Hexagonal,194,175.354,107.734,268.26343259345276
mp-bhnq,TiGaPt,Hexagonal,194,163.617,61.559,164.0971201227349
mp-bhpj,EuAgSb,Hexagonal,194,40.661,27.11,66.54153709429684
mp-bhqq,CeCuSi,Hexagonal,194,84.581,51.325,128.0700644610382
mp-bhyj,CaCuBi,Hexagonal,194,44.943,26.718,66.89745811435681
mp-bhys,CsNiCl3,Hexagonal,194,15.269,6.799,17.760813956582897
mp-bhze,CsTiBr3,Hexagonal,194,13.373,7.225,18.36725509040216
mp-bhzt,CsVCl3,Hexagonal,194,12.85,4.463,11.999766349708228
mp-biah,CsVI3,Hexagonal,194,9.676,2.6790000000000003,7.357934714731764
mp-biau,CsMgCl3,Hexagonal,194,13.722,4.715,12.691377040605042
mp-bicc,CsVBr3,Hexagonal,194,11.692,4.405,11.740567361515666
mp-bokt,Sc2Co3Si,Hexagonal,194,151.636,79.245,202.46549842460865
mp-boof,RbNiBr3,Hexagonal,194,12.959,3.423,9.438012127659576
mp-bpvu,RbTiCl3,Hexagonal,194,16.921,8.008,20.75054554116826
mp-bpvv,CsTiCl3,Hexagonal,194,15.527,9.192,23.03117379377118
mp-bqgf,Ca2IN,Hexagonal,194,50.374,31.593,78.39089312864297
mp-bqih,UReB3,Hexagonal,194,264.934,191.09,462.1562428136145
mp-brai,FeWN2,Hexagonal,194,228.877,128.086,323.8467526736278
mp-eig,YCuO2,Hexagonal,194,115.21,35.776,97.26060061981195
mp-bsag,CsMgBr3,Hexagonal,194,11.461,3.787,10.233829263819754
mp-bstn,YAuO2,Hexagonal,194,113.218,29.163,80.57109299734014
mp-btbf,SrCuBi,Hexagonal,194,40.538,27.691,67.66578361072972
mp-bthj,ErSnPt2,Hexagonal,194,131.951,48.795,130.32093117477197
mp-epe,AlCuO2,Hexagonal,194,178.355,80.28,209.41919508568367
mp-btxa,SrAgBi,Hexagonal,194,35.76,20.895,52.466134581626676
mp-epj,Nb4AlC3,Hexagonal,194,216.088,146.872,359.2284723921443
mp-bubx,BaCuBi,Hexagonal,194,38.096,24.08,59.6681683626272
mp-bubz,BaZnSi,Hexagonal,194,43.884,31.194,75.65588018127558
mp-buca,BaZnSn,Hexagonal,194,34.655,25.518,61.46703899353583
mp-eva,Ni2SbTe2,Hexagonal,194,33.489,21.669,53.473654524464536
mp-faz,NaAl11O17,Hexagonal,194,152.126,69.533,181.01921127719328
mp-fdl,ZrNi2Sb,Hexagonal,194,145.512,60.623,159.69210209208723
mp-bzzr,BaNbS3,Hexagonal,194,47.8,10.702,29.87631828269588
mp-fgr,KTeAu,Hexagonal,194,27.321,13.392,34.53353770646531
mp-fkc,ScCuO2,Hexagonal,194,137.545,46.58,125.56561719456028
mp-fno,Ti2CS,Hexagonal,194,179.75,134.771,323.4703150940401
mp-foa,NaNbO2,Hexagonal,194,146.768,99.169,242.81756849369663
mp-fod,Ti3AlC2,Hexagonal,194,158.241,128.029,302.5040695028801
mp-fqg,Ta4AlC3,Hexagonal,194,235.646,150.43,372.1086511509643
mp-fqh,Ta4AlC3,Hexagonal,194,236.717,145.106,361.46037158187534
mp-fsx,Ti2SnC,Hexagonal,194,134.1,94.05,228.68730734360832
mp-ftm,Zr2AlC,Hexagonal,194,125.112,93.417,224.40024775521434
mp-fuy,LiNbO2,Hexagonal,194,156.667,100.566,248.52184177844143
mp-fvb,CaAsAu,Hexagonal,194,60.978,27.657,72.07438548655925
mp-fxx,BaTaS3,Hexagonal,194,48.992,10.165,28.522366027962146
mp-gcm,CaCuAs,Hexagonal,194,64.433,42.103,103.71790975012956
mp-gvl,Zr2SnC,Hexagonal,194,126.349,78.073,194.21598112749388
mp-gxy,Zr2AlN,Hexagonal,194,142.503,97.869,238.91300161597934
mp-hco,Sc(AlC)3,Hexagonal,194,166.256,138.55,325.28960299254067
mp-hdz,LaCuSi,Hexagonal,194,82.111,45.769,115.79258351877083
mp-hfz,BaCeN2,Hexagonal,194,103.462,41.631,110.12263242400225
mp-hgf,Hf2SnC,Hexagonal,194,137.648,80.746,202.61850284996657
mp-hjm,Ti2AlN,Hexagonal,194,156.701,118.851,284.6005544728451
mp-hka,ScCrC2,Hexagonal,194,208.072,136.76,336.5458838123673
mp-hlh,Zr2CS,Hexagonal,194,165.501,114.231,278.5960869691224
mp-bdaxj,BaZnPb,Hexagonal,194,29.868,20.614,50.27573144132538
mp-bdbcj,YInPt2,Hexagonal,194,121.073,39.147,106.01492814750749
mp-hpp,Zr2SbP,Hexagonal,194,114.043,67.669,169.4849216028385
mp-hts,Ti2SbP,Hexagonal,194,114.291,70.239,174.89002967960263
mp-betsr,CsMnI3,Hexagonal,194,9.466,2.656,7.286509435177434
mp-ibj,Nb2SnC,Hexagonal,194,161.142,81.589,209.42228390750688
mp-bfgjm,InCuO2,Hexagonal,194,120.572,35.461,96.8848478839409
mp-bfmnc,CsNdO2,Hexagonal,194,67.258,33.706,86.6442302191269
mp-bfzhl,GdBO3,Hexagonal,194,117.092,27.567,76.68315496392965
mp-ijr,Ti3SiC2,Hexagonal,194,183.669,133.36,322.11792877213543
mp-bghce,Hf2SbP,Hexagonal,194,122.772,69.177,174.7159104168524
mp-bghti,Ba3BiN,Hexagonal,194,24.629,10.225,26.946021079037475
mp-bghuo,CsTiI3,Hexagonal,194,10.145,3.45,9.296215139442232
mp-bghxf,CoCN2,Hexagonal,194,164.34,68.938,181.44316528993272
mp-bgiis,Pr2CBr,Hexagonal,194,65.414,36.834,93.03889496988107
mp-bgjop,BaSbAu,Hexagonal,194,44.396,26.141,65.55619205543248
mp-bgjyl,MnGaPt,Hexagonal,194,103.094,38.589,102.92507651974438
mp-bgkkg,AlV4C3,Hexagonal,194,218.608,169.943,404.90609832555674
mp-bgklg,Cs3Ti2Cl9,Hexagonal,194,8.691,5.017,12.622216886458672
mp-bgkom,Ta3AlC2,Hexagonal,194,225.648,164.088,396.2217385497817
mp-bgkxr,RbTiBr3,Hexagonal,194,14.215,6.05,15.89499435260294
mp-bgkys,LiCu2Sn,Hexagonal,194,75.321,44.076,110.6456310532923
mp-bglkw,CaAlSi,Hexagonal,194,56.461,39.274,95.64521595728877
mp-bgmgn,TiAlPt,Hexagonal,194,161.564,51.204,138.93462071745267
mp-bgmjg,Hf2Al3C4,Hexagonal,194,196.908,156.611,371.3751250670716
mp-bgnkn,YbHgPb,Hexagonal,194,38.302,15.009,39.82505839972289
mp-iti,CaCuSb,Hexagonal,194,52.044,33.921,83.60015740872282
mp-iuf,BaTiO3,Hexagonal,194,139.365,73.886,188.36926936202823
mp-khm,SrAgAs,Hexagonal,194,48.889,29.294,73.25139828712044
mp-kjj,CePPd,Hexagonal,194,110.052,48.649,127.2033836195404
mp-kui,Sc2SO2,Hexagonal,194,139.478,67.795,175.02699158215574
mp-kxb,BaAgAs,Hexagonal,194,44.723,28.524,70.56916811417825
mp-kzk,KHgAs,Hexagonal,194,25.11,14.645,36.78381272575716
mp-kzl,KZnAs,Hexagonal,194,30.9,21.894,53.132986020210474
mp-kzz,KCuSe,Hexagonal,194,35.575,21.711,54.12282712790806
mp-laa,KCuTe,Hexagonal,194,29.374,17.875,44.581849014594745
mp-lab,KZnP,Hexagonal,194,36.508,26.245,63.51503023517886
mp-lac,KZnSb,Hexagonal,194,24.441,17.165,41.726724924851915
mp-bqvut,LiAgF2,Hexagonal,194,68.307,14.637,40.98363999945346
mp-bqxch,CsTmO2,Hexagonal,194,80.308,43.86,111.31517191977076
mp-bqxmd,CsErO2,Hexagonal,194,80.061,42.918,109.23494435554802
mp-bqxog,SmAgO2,Hexagonal,194,100.001,27.104,74.57450906278373
mp-bqxpi,CsDyO2,Hexagonal,194,78.024,40.984,104.6318587633064
mp-bqxpy,CsHoO2,Hexagonal,194,79.157,41.192,105.30898000811015
mp-bqxqb,AlInO3,Hexagonal,194,181.883,88.934,229.41088005509133
mp-bqxqj,ScGaO3,Hexagonal,194,179.215,83.392,216.5827084698657
mp-bqycm,GdYO2,Hexagonal,194,103.674,48.284,125.3866029067146
mp-bqzca,NaLiO,Hexagonal,194,55.978,39.05,95.04825542070884
mp-bqzge,DyHO2,Hexagonal,194,136.012,38.21,104.81475840679805
mp-bqzis,ScHO2,Hexagonal,194,155.028,52.193,140.78025436274956
mp-bqzjq,LuGaO3,Hexagonal,194,172.4,80.173,208.2391182728379
mp-bqzvn,CsGdO2,Hexagonal,194,76.461,37.118,95.84472321679844
mp-brndo,LiTiO2,Hexagonal,194,140.834,93.619,229.9124511771465
mp-brsqg,ScInO3,Hexagonal,194,151.834,59.427,157.7059207424713
mp-brsux,YScO3,Hexagonal,194,152.13,70.113,182.32871647455005
mp-brtjs,KNdO2,Hexagonal,194,69.273,37.8,95.94809277783885
mp-bscaq,LiCuS,Hexagonal,194,53.764,17.871,48.26525563872005
mp-ltg,LiNbS2,Hexagonal,194,82.755,57.167,139.40155505971867
mp-lth,NaNbS2,Hexagonal,194,76.388,48.843,120.78534625387131
mp-lti,KNbS2,Hexagonal,194,69.488,46.405,113.867578089136
mp-ltj,NaNbSe2,Hexagonal,194,61.06,39.007,96.47687209422692
mp-ltk,KNbSe2,Hexagonal,194,56.925,37.527,92.2987790563701
mp-lui,YAlO3,Hexagonal,194,171.919,82.453,213.26479959044482
mp-luv,CsSmO2,Hexagonal,194,71.864,36.15,92.87664513668756
mp-lxk,V2PC,Hexagonal,194,227.261,151.481,371.8287503948328
mp-lzm,InGaO3,Hexagonal,194,168.242,74.36,194.43446410377732
mp-mak,ErCuSi,Hexagonal,194,97.809,63.774,157.1637271284235
mp-mal,TmCuSi,Hexagonal,194,98.396,64.836,159.47944443703753
mp-man,LuCuSi,Hexagonal,194,100.492,65.529,161.48625335349655
mp-mao,YCuSi,Hexagonal,194,93.076,60.168,148.50431623236574
mp-mmi,CaCuP,Hexagonal,194,73.255,50.755,123.69701953644832
mp-mng,SrAsPt,Hexagonal,194,72.367,29.338,77.53613435373461
mp-bxfnm,MgMoN2,Hexagonal,194,246.262,183.147,440.29155982701565
mp-bxgnh,Na2MgSn,Hexagonal,194,22.948,18.808,44.31677378724959
mp-mzy,Zr2NiAs2,Hexagonal,194,138.277,68.334,176.00857815032134
mp-nro,LiBC,Hexagonal,194,153.134,133.263,309.89490889119486
mp-nsi,NaTeAu,Hexagonal,194,31.246,9.325,25.443860066173116
mp-odo,SrZnSi,Hexagonal,194,49.807,40.121,94.88535429086959
mp-oef,NaBeAs,Hexagonal,194,44.531,33.067,79.51853589943597
mp-oeg,NaBeSb,Hexagonal,194,34.453,23.924,58.281798417699136
mp-oes,NbSnS2,Hexagonal,194,68.64,28.417,74.91299248518159
mp-ogl,AlAgO2,Hexagonal,194,154.008,59.765,158.75879537514209
mp-okt,SrAsPd,Hexagonal,194,64.685,27.956,73.30719982343217
mp-cebtn,BaPAu,Hexagonal,194,57.169,33.396,83.85891527210435
mp-opt,EuZnGe,Hexagonal,194,52.444,36.396,88.67466972249753
mp-oqs,BaCuAs,Hexagonal,194,51.12,33.441,82.36323831242873
mp-osy,AlCr2C,Hexagonal,194,188.491,140.846,338.2803385920526
mp-osz,V2GeC,Hexagonal,194,179.763,104.264,262.1156064659787
mp-ota,Ti2GeC,Hexagonal,194,154.628,105.974,258.7994360840771
mp-otd,Ti2CdC,Hexagonal,194,112.721,59.737,152.30592961296807
mp-cerpx,Nb3AlC2,Hexagonal,194,200.473,134.763,330.2812159099244
mp-cerpy,Nb2AlC,Hexagonal,194,169.752,112.681,276.7972093765124
mp-cesuv,AgBiO2,Hexagonal,194,88.77,19.323,54.04741185367237
mp-ceswo,TlAgO2,Hexagonal,194,87.57,19.118,53.463351192926176
mp-oud,Nb2PC,Hexagonal,194,222.653,130.576,327.67285485545403
mp-oue,Nb2CS,Hexagonal,194,194.217,100.032,256.1236100737824
mp-ouf,Nb2AsC,Hexagonal,194,204.049,116.039,292.6433317847363
mp-bioe,Ge(Bi3O5)4,Cubic,197,53.667,29.547,74.8960348101266
mp-qbf,NiSbSe,Cubic,198,79.428,48.176,120.22170617887313
mp-qbg,AsPdS,Cubic,198,100.205,37.791,100.71223440187231
mp-qbh,AsPdSe,Cubic,198,95.795,35.985,95.94163860283885
mp-qbi,SbTePd,Cubic,198,79.387,32.354,85.45323912537198
mp-tdb,SrPIr,Cubic,198,98.247,31.257,84.78014684445917
mp-yfj,CoAsS,Cubic,198,123.363,106.06,247.30686827022637
mp-bfia,SrGePt,Cubic,198,67.988,19.913,54.425445204286284
mp-bfku,BaPPt,Cubic,198,79.315,31.085,82.47987575735048
mp-bgtz,BaGePt,Cubic,198,65.25,23.001,61.7475451540793
mp-binr,NaBrO3,Cubic,198,27.038,16.231,40.5740818942935
mp-fyufe,NaClO3,Cubic,198,25.827,14.452,36.540374359587965
mp-bqwq,K3BiSe3,Cubic,198,12.443,7.072,17.836806918763088
mp-bqxv,BiTePd,Cubic,198,74.017,26.776,71.68399220341844
mp-brvy,BiTePt,Cubic,198,86.263,32.854,87.45885009412194
mp-ffj,ZrSO,Cubic,198,130.347,50.433,134.01494144389022
mp-fln,NiSbS,Cubic,198,84.973,51.865,129.29006012373526
mp-gma,SbPdSe,Cubic,198,83.274,31.472,83.85246024444177
mp-gqg,CaSiPt,Cubic,198,82.686,21.792,60.09649734296832
mp-hfo,Tl3SbSe3,Cubic,198,14.239,6.494,16.911109182906262
mp-brawv,ZrSeO,Cubic,198,121.879,48.154,127.65055860083957
mp-bsdoz,AgClO3,Cubic,198,33.661,7.739,21.564378055959235
mp-lnn,HfSO,Cubic,198,141.028,58.701,154.64649512126778
mp-mni,BaAsPt,Cubic,198,68.239,23.705,63.734883045415934
mp-mty,SbIrS,Cubic,198,140.919,86.444,215.30676162065666
mp-ncd,SrSiPd,Cubic,198,68.756,23.297,62.79823487029817
mp-cdhti,SrSiPt,Cubic,198,78.261,27.152,73.0123276690782
mp-brjau,Na2Sn2O3,Cubic,199,30.323,23.861,56.70847275973178
mp-mts,K2Sn2O3,Cubic,199,23.501,15.91,38.9421521067432
mp-cgoxu,Sr3B3N5,Triclinic,2,69.598,26.776,71.1975397206775
mp-cgpbg,Sr4ZrN4,Triclinic,2,71.003,28.485,75.37530578399463
mp-cgpei,Ca4ZrN4,Triclinic,2,86.996,41.251,106.86260861106608
mp-cgpfv,Cs2CN2,Triclinic,2,17.81,3.776,10.580271999440619
mp-cgpha,Ca4HfN4,Triclinic,2,88.682,42.246,109.37078467167493
mp-cgphd,Sr3Al3N5,Triclinic,2,104.031,52.829,135.54316618619868
mp-cgphh,Ca4VN4,Triclinic,2,88.844,45.204,115.94726814997306
mp-cgpja,Ca3W3N5,Triclinic,2,108.798,49.934,129.92515568334008
mp-cgpjr,Sr4TiN4,Triclinic,2,72.97,33.654,87.50887466147196
mp-cgpoj,Ca3Al3N5,Triclinic,2,112.618,59.404,151.56305737832844
mp-pzu,TiAgF6,Triclinic,2,20.057,14.3,34.66229673295645
mp-rjl,Li4SiO4,Triclinic,2,78.989,53.188,130.31449531457324
mp-djtde,CsSnSe3,Triclinic,2,12.624,6.148,15.868041072239892
mp-yxg,Li3B7O12,Triclinic,2,64.468,39.327,98.04451200742488
mp-bhqx,Pb(CO2)2,Triclinic,2,22.536,13.958,34.708302380894004
mp-bjfb,B(HO)3,Triclinic,2,14.465,6.744,17.51067312870221
mp-fjxih,TePdI2,Triclinic,2,6.67,3.699,9.36568265215741
mp-fzbnm,NaCu3O4,Triclinic,2,45.84,20.876,54.37386398646431
mp-bplp,Na8Ti5O14,Triclinic,2,74.063,43.59,109.32261589516104
mp-bptu,TlSbS2,Triclinic,2,13.437,5.992,15.649753493294172
mp-bpzk,CuAuF5,Triclinic,2,30.801,13.085,34.38570989117246
mp-ewh,RbNbO3,Triclinic,2,40.207,18.604,48.3540976979709
mp-goi,CaSiO3,Triclinic,2,76.748,39.815,101.83513447061569
mp-goj,CaSiO3,Triclinic,2,92.549,47.623,121.95145338641743
mp-hmv,Al2SiO5,Triclinic,2,172.073,119.72,291.5455979897443
mp-bfonu,CaGe2O5,Triclinic,2,117.103,60.045,153.84084441867589
mp-bgiyf,Ca4TiN4,Triclinic,2,90.623,44.997,115.82141403306129
mp-bkekn,TiZnO3,Triclinic,2,65.52,25.095,66.76149692089056
mp-bmmuu,TlSbS2,Triclinic,2,14.241,6.331,16.541728279039422
mp-bqvll,ZrBiO4,Triclinic,2,105.128,46.263,121.03468292561531
mp-bqzax,CuReO4,Triclinic,2,47.537,30.382,75.13842875723294
mp-brbjf,HfBiO4,Triclinic,2,129.509,61.088,158.36440538683098
mp-lhe,KSO4,Triclinic,2,21.988,11.3,28.942063574238972
mp-fzv,AlPO4,Orthorhombic,20,17.002,30.589,57.364637563576196
mp-bfnlc,GaPO4,Orthorhombic,20,22.532,25.908,56.188307494866535
mp-bftqj,BaTiO3,Orthorhombic,20,102.538,53.631,137.00657255325333
mp-cehxa,SrTcN3,Orthorhombic,20,85.068,22.858,62.93689571390553
mp-cesxf,AuO2F,Orthorhombic,20,17.499,7.771,20.30700472887768
mp-bsqs,Mg2Al5Cu6,Cubic,200,101.138,58.206,146.51165823792934
mp-btyu,B6H10N,Cubic,202,14.126,3.607,9.97221567902577
mp-tei,Yb(FeP3)4,Cubic,204,157.162,108.383,264.37557692168406
mp-ybw,Ce(FeP3)4,Cubic,204,168.858,133.263,316.5223531711983
mp-fhh,Nd(Sb3Os)4,Cubic,204,100.469,52.211,133.50644659208524
mp-ghn,Pr(Sb3Os)4,Cubic,204,100.522,49.953,128.56311947291613
mp-gkz,Pr(P3Ru)4,Cubic,204,162.522,100.692,250.36971365625286
mp-vvl,Li7TaN4,Cubic,205,82.815,64.79,154.16621594010888
mp-vyh,Li7NbN4,Cubic,205,81.654,63.726,151.71093542994868
mp-beuu,Pb(NO3)2,Cubic,205,30.668,10.034,27.14189231462789
mp-eqw,Ca(NO3)2,Cubic,205,3.748,8.029,14.052520520936024
mp-gdx,Sr(NO3)2,Cubic,205,31.616,13.799,36.13926436993198
mp-gnc,Ba(NO3)2,Cubic,205,27.443,9.771,26.203148501628664
mp-gvc,Li7VN4,Cubic,205,82.448,71.832,166.9976521542973
mp-hlg,ZrP2O7,Cubic,205,131.49,51.345,136.2946209750681
mp-bgnft,Y(BH4)3,Cubic,205,27.174,16.32,40.79349481817625
mp-cgpao,Li3InN2,Cubic,206,85.511,58.145,142.20356635989805
mp-cgpbs,Li3YN2,Cubic,206,80.904,44.751,113.35307199883115
mp-uqi,Li3AlN2,Cubic,206,102.784,99.981,226.50146800772896
mp-bgiv,Cu3TeO6,Cubic,206,147.302,62.89,165.16455166047274
mp-ftn,Li3GaN2,Cubic,206,98.991,87.141,202.11596708008557
mp-bewkx,Li3ScN2,Cubic,206,92.251,60.664,149.27176750430476
mp-beepz,LiAl5O8,Cubic,212,196.082,120.442,299.91840442620725
mp-batx,Al2Mo3C,Cubic,213,225.38,81.165,217.39815437637415
mp-gbj,Ni2Mo3N,Cubic,213,278.976,141.689,363.52370148485056
mp-ilq,Ag3Te2Au,Cubic,214,41.009,10.424,28.829310713295516
mp-cfzyy,Al3BN4,Cubic,215,223.081,145.417,358.380094754867
mp-cgadw,AlGa3N4,Cubic,215,177.124,106.97,267.13358751264997
mp-cgamx,Ga3BN4,Cubic,215,206.368,134.04,330.55312195277395
mp-pxk,TaCu3S4,Cubic,215,32.41,24.368,58.454102205628374
mp-bekf,Cu3AsS4,Cubic,215,71.506,26.458,70.6591184682292
mp-bgip,VCu3Se4,Cubic,215,35.323,20.988,52.55505498712162
mp-cbqe,H4BrN,Cubic,215,18.724,9.681,24.773410414104138
mp-fos,VCu3S4,Cubic,215,43.389,24.992,62.89935480378193
mp-fzn,NbCu3Se4,Cubic,215,33.566,22.259,54.68830848182699
mp-gaz,TaCu3Se4,Cubic,215,41.99,22.077,56.354529777705736
mp-htt,Zn(CN)2,Cubic,215,40.24,4.726,13.643863973343112
mp-bfkkk,Na4CO4,Cubic,215,32.124,11.846,31.647860208098468
mp-iif,NbCu3S4,Cubic,215,44.381,25.259,63.693495732377116
mp-bqxji,Li3CrS4,Cubic,215,11.688,5.266,13.735211306719567
mp-bqzij,Li3NbS4,Cubic,215,11.108,7.241,17.845365512141008
mp-brgvf,Li3VS4,Cubic,215,13.233,5.774,15.12251397532602
mp-bwjux,Li3SbS4,Cubic,215,9.928,5.909,14.792283304849688
mp-ntn,TaCu3Te4,Cubic,215,34.708,19.87,50.05751600883913
mp-cdvtj,Zn3CdS4,Cubic,215,65.214,27.769,72.95230805108073
mp-cekzk,NbCu3Te4,Cubic,215,30.476,19.727,48.67797641131753
mp-cfkbn,VCoTe,Cubic,216,143.581,40.65,111.43379059510853
mp-cfkdk,TiGePt,Cubic,216,151.635,59.294,157.36983387754546
mp-cfkko,NaAgO,Cubic,216,59.264,20.866,56.023032628940186
mp-cfkku,MnFeTe,Cubic,216,111.271,57.648,147.47562457562822
mp-cfkkv,MnCoSe,Cubic,216,118.385,29.978,82.93371321076096
mp-cfkkw,MnCoTe,Cubic,216,116.02,49.122,129.14031844343398
mp-cfkky,MnCoS,Cubic,216,133.924,13.263,38.517489146698466
mp-cfklz,MgAgSb,Cubic,216,58.085,16.306,44.732164976044416