material_id,formula_pretty,symmetry.crystal_system,symmetry.number,bulk_modulus.vrh,shear_modulus.vrh,youngs_modulus_vrh
mp-qzc,NdHg2,Hexagonal,191,55.521,23.982,62.89087406124538
mp-qzg,SrHg2,Hexagonal,191,30.199,11.573,30.786309513555832
mp-rbi,TmNi5,Hexagonal,191,155.253,75.801,195.5738863228451
mp-rcj,TlPt,Hexagonal,191,62.299,7.605,21.92293680784774
mp-rcs,TbRh5,Hexagonal,191,179.088,76.027,199.80679707349364
mp-rcv,YRh5,Hexagonal,191,178.749,76.122,199.97841563175146
mp-btj,DyNi5,Hexagonal,191,152.06,73.223,189.28605319576954
mp-rmw,CaPd5,Hexagonal,191,115.09,50.004,131.03478407383233
mp-rvr,LaCd2,Hexagonal,191,45.263,26.186,65.85776979163451
mp-rwi,UAu2,Hexagonal,191,111.096,48.418,126.82906517581594
mp-bun,RbAu5,Hexagonal,191,71.996,25.159,67.6024428087432
mp-buo,ThCd2,Hexagonal,191,66.397,37.237,94.11671122286702
mp-bux,BaGa2,Hexagonal,191,35.919,24.771,60.423049778160085
mp-bwe,ZrBe2,Hexagonal,191,118.38,89.18,213.84172578321935
mp-bwi,HoGa2,Hexagonal,191,74.229,50.758,124.00826578653844
mp-bwm,SrPd5,Hexagonal,191,106.301,46.203,121.06847306535637
mp-sqs,PrZn5,Hexagonal,191,73.779,34.33,89.16089143299683
mp-swm,Zr4Al3,Hexagonal,191,107.665,78.177,188.82758603541623
mp-bzf,YCd2,Hexagonal,191,55.449,31.607,79.68108190286634
mp-txh,YbGa2,Hexagonal,191,46.483,35.142,84.20565936388475
mp-caz,ThCu2,Hexagonal,191,94.521,32.47,87.40185939443032
mp-cfp,TaN,Hexagonal,191,289.035,146.051,374.991271891989
mp-cgg,UB2,Hexagonal,191,210.847,214.267,480.15369167627136
mp-chb,TbSi2,Hexagonal,191,85.829,26.002,70.85118266317211
mp-chi,YB2,Hexagonal,191,163.074,152.469,348.72480267605437
mp-cht,HoNi5,Hexagonal,191,149.455,73.617,189.70358865822962
mp-cig,SmFe5,Hexagonal,191,92.119,59.905,147.69881299403445
mp-cih,ThNi5,Hexagonal,191,154.083,65.856,172.9307816286534
mp-cju,NbAu2,Hexagonal,191,176.852,63.241,169.5169830564991
mp-cjv,YbCu5,Hexagonal,191,98.016,39.517,104.50642138114011
mp-cnt,U2Ti,Hexagonal,191,130.716,129.399,291.88295044550154
mp-cos,CaZn5,Hexagonal,191,59.683,35.088,88.01568125078805
mp-cpk,HoSi2,Hexagonal,191,87.904,19.987,55.73666185640414
mp-cpm,UHg2,Hexagonal,191,72.435,37.696,96.3705547821381
mp-cqg,ErB2,Hexagonal,191,171.507,164.724,374.33013362188905
mp-cru,BaAg5,Hexagonal,191,52.275,8.453,24.062035933397063
mp-ha,SrGa2,Hexagonal,191,41.237,31.131,74.6163277599101
mp-csl,SrAu5,Hexagonal,191,90.516,27.279,74.36635135379333
mp-csm,LaPt5,Hexagonal,191,178.329,71.862,190.05668194559107
mp-cuk,CaCu5,Hexagonal,191,90.279,36.849,97.30770278465708
mp-cvm,CeNi5,Hexagonal,191,146.347,65.083,170.04212497123723
mp-cvq,YGa2,Hexagonal,191,73.693,52.98,128.2143489540573
mp-bdgn,GdGa2,Hexagonal,191,84.386,51.145,127.6467788027065
mp-bdjy,EuSi2,Hexagonal,191,61.803,17.315,47.508289620370554
mp-bdkm,InNi,Hexagonal,191,102.664,52.845,135.31736412840146
mp-bdrs,DyGa2,Hexagonal,191,74.223,51.788,126.04796567768355
mp-czx,HfBe5,Hexagonal,191,130.956,120.416,276.4995192992574
mp-dax,LaCu2,Hexagonal,191,67.31,20.287,55.30477744727
mp-bejw,CoSn,Hexagonal,191,125.544,73.734,184.98677001372218
mp-dbd,DyB2,Hexagonal,191,167.701,152.964,351.89994600551466
mp-beno,UGa2,Hexagonal,191,83.105,43.833,111.83659170453149
mp-bfie,EuGa2,Hexagonal,191,46.089,32.199,78.35097555524267
mp-bfjk,PuGa2,Hexagonal,191,75.088,49.643,122.03524194000153
mp-bfls,FeSn,Hexagonal,191,95.179,53.266,134.67484504564598
mp-den,ErSi2,Hexagonal,191,87.942,22.573,62.38161758246364
mp-deu,YNi5,Hexagonal,191,147.351,72.438,186.71717414298794
mp-dfm,Li2Pt,Hexagonal,191,66.968,30.516,79.47610142597874
mp-bhgo,FeGe,Hexagonal,191,152.403,77.414,198.61310227580935
mp-dip,Li3N,Hexagonal,191,51.984,33.607,82.94639975944165
mp-diq,ScB2,Hexagonal,191,191.13,195.809,437.8902826576738
mp-djf,HoB2,Hexagonal,191,168.393,159.19,363.1390613198389
mp-it,SmCu5,Hexagonal,191,104.928,37.739,101.09666639623514
mp-dld,LaNi5,Hexagonal,191,114.252,59.861,152.88264218351438
mp-dne,PrNi5,Hexagonal,191,139.425,63.816,166.10538715719647
mp-dos,SrAg5,Hexagonal,191,60.814,21.072,56.670565523747754
mp-dpe,ErGa2,Hexagonal,191,74.361,49.575,121.68364462073366
mp-dpg,LaZn5,Hexagonal,191,70.032,33.134,85.86096530855568
mp-dpr,HoCo5,Hexagonal,191,377.141,59.059,168.387369881275
mp-dqs,PrCu5,Hexagonal,191,99.806,34.941,93.86884460714381
mp-dtc,NdGa2,Hexagonal,191,70.177,53.203,127.41111263242509
mp-duf,HfBe2,Hexagonal,191,127.5,108.178,252.98516542416817
mp-duu,YSi2,Hexagonal,191,85.401,29.796,80.07536307469607
mp-dwg,BaPd5,Hexagonal,191,99.329,39.724,105.15413108841584
mp-dxt,YbNi5,Hexagonal,191,131.006,69.809,177.83876196937516
mp-dzg,TbGa2,Hexagonal,191,73.518,52.463,127.14509904511442
mp-dzl,ThFe5,Hexagonal,191,117.852,50.22,131.92152817403706
mp-edp,YCu5,Hexagonal,191,108.45,42.488,112.74096857855903
mp-eee,HoFe5,Hexagonal,191,122.739,72.045,180.766410217098
mp-eet,YCo5,Hexagonal,191,170.478,50.237,137.23110072266505
mp-efh,ScSi2,Hexagonal,191,94.18,31.99,86.20914952468763
mp-bsxv,BaAu2,Hexagonal,191,44.664,16.757,44.68296195662989
mp-bsxw,BaAu5,Hexagonal,191,80.248,16.568,46.50362119139412
mp-btbx,TlBi2,Hexagonal,191,40.558,12.03,32.8428069466882
mp-btcj,CaPt5,Hexagonal,191,167.886,79.033,204.94019667714105
mp-btcx,SmCd2,Hexagonal,191,53.428,25.46,65.91056464811784
mp-btcz,TbCd2,Hexagonal,191,54.807,30.672,77.54949042764221
mp-btdi,CeHg2,Hexagonal,191,64.176,30.596,79.20152051773901
mp-bths,DyRh5,Hexagonal,191,180.429,75.831,199.53882967438966
mp-btlt,YHg2,Hexagonal,191,62.527,27.952,72.98090007562648
mp-btmv,LaPd5,Hexagonal,191,126.008,47.043,125.50997630020677
mp-btor,NdZn5,Hexagonal,191,75.202,36.423,94.08020491624973
mp-btoy,TbNi5,Hexagonal,191,143.336,72.199,185.45827273614267
mp-btrx,YZn5,Hexagonal,191,78.306,45.395,114.13066047596794
mp-lx,ThAg2,Hexagonal,191,83.938,36.124,94.77591289791552
mp-ok,CrB2,Hexagonal,191,259.702,185.971,450.40278213862734
mp-qj,GdB2,Hexagonal,191,153.466,127.484,299.51612040511526
mp-ri,NbB2,Hexagonal,191,286.562,201.475,489.66717637568655
mp-sj,SmGa2,Hexagonal,191,71.852,53.193,127.9938192290948
mp-bewqa,EuAg5,Hexagonal,191,65.098,20.975,56.82217493029515
mp-bghji,SmZn5,Hexagonal,191,76.323,41.622,105.65925383327604
mp-bgibz,NdAg2,Hexagonal,191,58.469,17.944,48.83610441114864
mp-bgigk,DyFe5,Hexagonal,191,118.137,70.637,176.69437197916469
mp-bgjfi,PrAg2,Hexagonal,191,55.102,17.113,46.52281140670654
mp-bgkhc,FeB2,Hexagonal,191,276.937,126.51,329.3750986659647
mp-bglch,ErZn5,Hexagonal,191,80.275,46.353,116.61368097486579
mp-bgmez,ScNi5,Hexagonal,191,159.381,78.332,201.91687394402263
mp-bgmhx,YbHg2,Hexagonal,191,39.227,13.664,36.72754617229434
mp-bgmlc,SrPt5,Hexagonal,191,158.423,71.316,186.03300861165235
mp-bgnfd,BaSn5,Hexagonal,191,35.93,14.998,39.4981859790859
mp-wi,PuB2,Hexagonal,191,120.478,143.495,308.14612646530503
mp-yo,SrZn5,Hexagonal,191,52.276,24.166,62.818194768887366
mp-zs,PrGa2,Hexagonal,191,69.061,52.941,126.49899897356646
mp-zt,ThAl2,Hexagonal,191,86.769,60.691,147.64850999383174
mp-bca,Li2Pd,Hexagonal,191,50.698,21.97,57.59097538836289
mp-lcj,ThSi2,Hexagonal,191,105.59,47.811,124.62325631341186
mp-bdj,MgB2,Hexagonal,191,147.434,114.34,272.56015902501065
mp-bds,TmSi2,Hexagonal,191,89.456,28.37,76.97295418854344
mp-bdu,CaNi5,Hexagonal,191,115.071,63.525,160.95632770870338
mp-lty,Nd2O3,Hexagonal,191,98.225,37.433,99.64140528081228
mp-beu,TmB2,Hexagonal,191,175.007,164.653,376.0310641534986
mp-bff,BaPt5,Hexagonal,191,147.734,62.266,163.78731630093299
mp-bgv,ErNi5,Hexagonal,191,151.736,74.924,193.0047848007666
mp-bki,AlB2,Hexagonal,191,190.335,144.826,346.57497424671465
mp-bky,B2Mo,Hexagonal,191,303.426,158.777,405.5858959716758
mp-bld,TbB2,Hexagonal,191,160.306,144.669,333.6414893947605
mp-cdktb,OsN2,Hexagonal,191,207.427,115.236,291.6916083941116
mp-bls,USi2,Hexagonal,191,120.789,64.11,163.4180626622303
mp-cdvna,SrMg5,Hexagonal,191,28.947,16.656,41.92653978376185
mp-cebyw,AlFe,Hexagonal,191,90.176,5.364,15.779133052063854
mp-cebyx,AlFe2,Hexagonal,191,147.957,50.081,135.0101035181556
mp-bme,CaGa2,Hexagonal,191,37.61,27.803,66.91912616526704
mp-bmf,DySi2,Hexagonal,191,87.052,23.018,63.46064884190674
mp-cewoe,Na3N,Hexagonal,191,27.127,13.547,34.84119776040789
mp-pwy,Ba3N,Hexagonal,193,12.544,5.365,14.08672791124962
mp-qyz,Mg5Hg3,Hexagonal,193,42.841,19.557,50.92229155186386
mp-sln,Ca5Sb3,Hexagonal,193,36.153,25.807,62.54006404450867
mp-xqb,Hf5Si3,Hexagonal,193,140.749,88.346,219.1794646342586
mp-zle,Sc5Ge3,Hexagonal,193,84.782,67.801,160.593578204981
mp-baep,Sc5Sn3,Hexagonal,193,72.275,52.028,125.87887544494575
mp-bagt,Y5Ge3,Hexagonal,193,70.05,52.258,125.55278840584131
mp-bevv,Ti5Sn3,Hexagonal,193,106.614,50.343,130.48993724218974
mp-ddc,Ti5Si3,Hexagonal,193,139.791,94.124,230.61321245499
mp-bffs,Hf5Sn3,Hexagonal,193,113.876,48.717,127.91062733735541
mp-bhvr,ZrCl3,Hexagonal,193,4.878,3.407,8.290788426362175
mp-bikd,ZrBr3,Hexagonal,193,5.309,3.074,7.730055997052788
mp-bilm,ZrI3,Hexagonal,193,3.862,2.612,6.394414424566841
mp-dmv,Hf5Al3,Hexagonal,193,111.876,23.687,66.37646997203011
mp-rh,Fe5Si3,Hexagonal,193,175.831,104.859,262.4126522269242
mp-bdbet,Nd5Sn3,Hexagonal,193,53.972,30.308,76.58799309139339
mp-bdblz,Hf5Sn4,Hexagonal,193,111.118,64.424,161.96972755657677
mp-bexgr,Zr5Sn4,Hexagonal,193,104.158,64.238,159.85186146446094
mp-bghjo,Y5Sn3,Hexagonal,193,62.369,45.075,108.97289227847119
mp-bglmq,Zr5Sb4,Hexagonal,193,106.781,50.269,130.35186880349258
mp-bgmxb,TiCl3,Hexagonal,193,6.621,3.142,8.138606302977614
mp-ouq,Hf2S,Hexagonal,194,133.807,77.674,195.2429565368038
mp-ouz,GaTe,Hexagonal,194,11.919,8.821,21.22655774148683
mp-cfaad,LiB,Hexagonal,194,70.778,45.849,113.12094405131245
mp-ovq,ScTe,Hexagonal,194,62.614,33.162,84.55796823586903
mp-ovr,TiSe,Hexagonal,194,105.341,56.829,144.50187527759005
mp-owq,TiAs,Hexagonal,194,115.242,62.395,158.5674868727657
mp-cfiub,HW,Hexagonal,194,295.549,163.378,413.8718989528821
mp-cfizq,ErH,Hexagonal,194,67.398,47.034,114.47340502672253
mp-cfjvv,CdN,Hexagonal,194,101.532,19.068,53.833943793563705
mp-cfjwa,BiPd,Hexagonal,194,89.644,25.074,68.80676892308321
mp-cfjwm,BaO,Hexagonal,194,67.199,28.172,74.15348481300785
mp-cfjxk,BeSe,Hexagonal,194,88.735,23.739,65.38614865284332
mp-ozl,SbIr,Hexagonal,194,160.755,61.559,163.77220094184884
mp-cfrht,VS2,Hexagonal,194,26.366,15.667,39.2305713923917
mp-bna,ZrMn2,Hexagonal,194,157.977,43.71,120.0572830011533
mp-cfsjm,ZrB,Hexagonal,194,159.802,84.523,215.56348408044272
mp-cfslv,ZrC,Hexagonal,194,217.405,130.486,326.1970784118073
mp-cfxfx,YN,Hexagonal,194,146.084,87.281,218.35587572236187
mp-cfxgk,ZrN,Hexagonal,194,225.65,124.34,315.1367033159031
mp-cfxzx,InCu,Hexagonal,194,68.624,19.561,53.59102960081266
mp-pbv,TeIr,Hexagonal,194,144.366,28.444,80.07314293390417
mp-cfzck,Mg2Ge,Hexagonal,194,48.583,15.766,42.68108969445562
mp-cfzcz,MoS2,Hexagonal,194,27.047,17.899,43.992611843699514
mp-cfzii,Re2N,Hexagonal,194,387.147,182.404,472.9373197742299
mp-cfzmk,ReC2,Hexagonal,194,348.768,194.625,492.30112923462985
mp-cfzuu,TaN2,Hexagonal,194,288.589,150.555,384.75665394924044
mp-pcm,MnSe,Hexagonal,194,55.613,26.089,67.68321867743406
mp-cgixl,Co3H,Hexagonal,194,215.784,117.284,297.8830396476232
mp-pem,VTe,Hexagonal,194,62.066,40.094,98.97065665600199
mp-chdoh,CaMg3,Hexagonal,194,29.005,9.348,25.3235023816195
mp-prq,CuSn,Hexagonal,194,76.069,40.891,104.0321269983426
mp-ciouk,BiRh,Hexagonal,194,111.998,38.731,104.18347012342385
mp-pxx,FeTe,Hexagonal,194,61.5,46.767,111.92921817639353
mp-bpm,CaCd2,Hexagonal,194,39.906,23.145,58.18594968606287
mp-cjkrk,B3Os2,Hexagonal,194,338.097,195.212,491.11521350174405
mp-bpy,FeSe,Hexagonal,194,78.571,36.343,94.46420103581617
mp-ckivq,Fe2Mo,Hexagonal,194,229.35,121.212,309.17026846682535
mp-bqw,VP,Hexagonal,194,169.325,108.026,267.2455435137281
mp-qpd,AlAs,Hexagonal,194,82.001,37.331,97.23723230886516
mp-qpo,Sc2Al,Hexagonal,194,70.371,45.946,113.20122498725972
mp-brg,MgZn2,Hexagonal,194,63.27,43.383,105.93620601819094
mp-qqt,Mg3Au,Hexagonal,194,43.494,9.418,26.35195445318084
mp-qrr,Be2Re,Hexagonal,194,241.539,173.672,420.284619840608
mp-qrx,Be2V,Hexagonal,194,158.028,137.179,319.1802990005939
mp-qry,Be2W,Hexagonal,194,217.897,168.39,401.694093976141
mp-qsa,CaGa2,Hexagonal,194,46.436,41.853,96.55153798002881
mp-quj,ZrP,Hexagonal,194,135.334,80.903,202.3810382271696
mp-brs,Na3As,Hexagonal,194,22.238,13.902,34.51391887466507
mp-brv,Co3Mo,Hexagonal,194,283.145,138.782,357.8757140486351
mp-qyn,HfPd3,Hexagonal,194,178.957,84.487,218.99751919344402
mp-qyq,HfPt3,Hexagonal,194,230.018,105.973,275.59527205232985
mp-qzq,MoIr3,Hexagonal,194,337.003,189.314,478.36663421262443
mp-rah,YMg2,Hexagonal,194,42.792,22.125,56.617278290509695
mp-rcn,ScRe2,Hexagonal,194,226.157,75.273,203.26747907645034
mp-rmq,BaNa2,Hexagonal,194,8.587,5.631,13.862785837155965
mp-cpnux,Re3Rh,Hexagonal,194,328.997,175.246,446.4654578696084
mp-rpb,MgIr2,Hexagonal,194,197.34,57.181,156.4336574650994
mp-cptkb,ScFe2,Hexagonal,194,128.842,64.99,166.90654200515596
mp-rwg,CuAs,Hexagonal,194,106.034,24.932,69.35976373187496
mp-rxt,ZrRe2,Hexagonal,194,252.922,75.042,204.8648543981348
mp-rye,FeN,Hexagonal,194,293.289,175.639,439.2366126189714
mp-bus,VS,Hexagonal,194,129.858,71.568,181.38251578906278
mp-bwc,Lu2In,Hexagonal,194,58.376,31.582,80.27031826229985
mp-sov,PrAl3,Hexagonal,194,65.851,44.296,108.54881791531079
mp-sqq,Pr2Tl,Hexagonal,194,44.062,16.519,44.051925638008136
mp-ssv,HfAl2,Hexagonal,194,119.513,89.118,214.13009470643817
mp-ssx,Mn2Nb,Hexagonal,194,223.474,77.447,208.28048482020245
mp-bxa,CoS,Hexagonal,194,165.111,50.421,137.28814736859462
mp-thz,Sr2Si,Hexagonal,194,30.437,17.973,45.051405594597554
mp-byg,ThAl3,Hexagonal,194,85.595,43.904,112.4805560562575
mp-tli,Cu3Sn,Hexagonal,194,106.478,47.503,124.06004274848272
mp-tmw,AlN,Hexagonal,194,204.816,122.484,306.378534920454
mp-byt,ZrTe,Hexagonal,194,88.453,48.267,122.51614521436359
mp-tua,CaZn2,Hexagonal,194,46.953,29.598,73.37588979038702
mp-tub,SrZn2,Hexagonal,194,36.313,20.102,50.911534582032075
mp-tzj,ScZn2,Hexagonal,194,81.128,49.625,123.66102406410725
mp-ubc,Cs2Pt,Hexagonal,194,12.618,4.817,12.8196703616039
mp-umw,B3Ru2,Hexagonal,194,300.208,172.829,435.0091116127116
mp-ute,K3As,Hexagonal,194,12.83,5.999,15.57024275663647
mp-ccf,TiNi3,Hexagonal,194,189.888,96.324,247.17704434314135
mp-ditgp,Zn3N2,Hexagonal,194,132.434,56.294,147.9227249887565
mp-xeq,NaSe,Hexagonal,194,21.931,11.917,30.268505250289536
mp-xfb,CoAs,Hexagonal,194,161.139,76.351,197.81072533799718
mp-xjr,NbN,Hexagonal,194,298.99,138.373,359.6385829913371
mp-cjd,TiCr2,Hexagonal,194,199.407,71.552,191.7242513149978
mp-cji,Ni2Ge,Hexagonal,194,173.653,44.062,121.87774679879156
mp-cjm,Na3P,Hexagonal,194,24.781,14.892,37.22023721633889
mp-cld,CrSb,Hexagonal,194,73.845,48.058,118.47335461232302
mp-yld,NdAl3,Hexagonal,194,66.853,39.767,99.56013606101713
mp-cmd,Co2Ge,Hexagonal,194,208.679,54.043,149.24531345282907
mp-cmn,Be2Mo,Hexagonal,194,197.598,148.915,357.0507510762307
mp-yvf,CdCu2,Hexagonal,194,100.935,30.995,84.35087754643499
mp-cms,ZrAs,Hexagonal,194,117.987,65.248,165.27732463759128
mp-cmz,HfRe2,Hexagonal,194,262.427,79.393,216.36024768136576
mp-cno,Tb2Tl,Hexagonal,194,52.499,22.879,59.93104176276224
mp-cqb,SbPd,Hexagonal,194,104.823,29.332,80.48846316328341
mp-cqh,SnAu,Hexagonal,194,72.865,20.977,57.42074176030588
mp-cqx,Al5Rh2,Hexagonal,194,131.181,77.568,194.38949689563609
mp-csb,WSe2,Hexagonal,194,23.208,17.056,41.09968657129673
mp-csc,TiAs,Hexagonal,194,118.615,71.121,177.82248875788702
mp-csd,Ti3Al,Hexagonal,194,113.96,60.543,154.30361216928455
mp-cwl,BaMg2,Hexagonal,194,21.701,13.481,33.50504719790288
mp-cwt,GaSe,Hexagonal,194,15.789,8.947,22.576582146535497
mp-cwz,TiMn2,Hexagonal,194,181.973,54.384,148.37136693969543
mp-ho,Al5Co2,Hexagonal,194,124.129,83.776,205.1706954224696
mp-bdie,Sm2In,Hexagonal,194,48.746,20.676,54.344456810093824
mp-cyi,TaS2,Hexagonal,194,31.338,16.914,43.00499772825617
mp-bdjs,SnPt,Hexagonal,194,127.368,44.847,120.4087922595333
mp-bdqn,SnIr,Hexagonal,194,154.138,58.196,155.07181082192042
mp-bdto,Ni3Sn,Hexagonal,194,161.837,67.389,177.5263200162778
mp-hv,NiTe,Hexagonal,194,114.446,31.57,86.7347241990035
mp-dal,ScMn2,Hexagonal,194,173.191,39.923,111.22284812938788
mp-befw,Fe2Ge,Hexagonal,194,141.838,26.348,74.434957168339
mp-behl,Mn2Ge,Hexagonal,194,137.679,39.98,109.35496411834434
mp-behx,InSe,Hexagonal,194,10.288,8.123,19.29168225305871
mp-bepq,Ho2In,Hexagonal,194,55.238,26.456,68.44142557110891
mp-besm,La2In,Hexagonal,194,39.889,15.239,40.5528014988214
mp-bewq,Fe2W,Hexagonal,194,259.462,135.348,345.8982209089298
mp-bexf,Fe3Sn,Hexagonal,194,116.858,48.902,128.7469315903834
mp-bfes,Fe3Ge,Hexagonal,194,166.23,69.592,183.20922260427045
mp-bffg,InNi2,Hexagonal,194,169.516,42.474,117.60002913858247
mp-bfna,Y2In,Hexagonal,194,53.665,27.105,69.59759928229666
mp-dgd,TiSb,Hexagonal,194,90.133,45.424,116.67235295719439
mp-dgf,CrSe,Hexagonal,194,47.608,28.803,71.90756125784405
mp-dgi,BPt,Hexagonal,194,259.986,51.85,145.8539313158806
mp-dgx,NbSe2,Hexagonal,194,21.189,14.307,35.0355600970799
mp-dhe,TmMg2,Hexagonal,194,44.234,24.287,61.58903121874781
mp-dhf,ThHg2,Hexagonal,194,77.59,33.498,87.85129410969398
mp-dhp,Be2Fe,Hexagonal,194,154.342,145.09,331.41921445908343
mp-bhdd,Mn3Sn,Hexagonal,194,93.71,57.01,142.19454634175193
mp-iq,WS2,Hexagonal,194,28.304,20.652,49.8352456519268
mp-bhhy,Mn2Sn,Hexagonal,194,94.115,44.452,115.21647940464571
mp-bhvo,BiRh,Hexagonal,194,102.002,29.791,81.44406959561879
mp-bhvy,MnBi,Hexagonal,194,44.541,10.07,28.092884343704984
mp-dkg,Al3Ir,Hexagonal,194,150.642,34.51,96.185107146675
mp-bijj,CuBr,Hexagonal,194,23.429,9.765,25.721501836306402
mp-dmb,Li3N,Hexagonal,194,65.179,44.749,109.24588048825152
mp-dmh,NiAs,Hexagonal,194,116.72,18.447,52.57145024375554
mp-fekwf,Li9Ge4,Hexagonal,194,33.833,29.535,68.63347600622738
mp-bjdv,SrH2,Hexagonal,194,39.071,24.69,61.18240565738569
mp-fhmhi,TbSe,Hexagonal,194,60.482,10.16,28.86378338882916
mp-dpo,CaMg2,Hexagonal,194,30.093,22.012,53.0912009332894
mp-dsl,GaS,Hexagonal,194,18.273,12.041,29.617510275201916
mp-fngpc,TePb,Hexagonal,194,37.434,19.608,50.080000363884466
mp-duj,Zr2Al,Hexagonal,194,103.887,54.176,138.4595844816134
mp-duy,SrMg2,Hexagonal,194,25.64,16.339,40.42920940606268
mp-dwt,FeSb,Hexagonal,194,110.972,60.628,153.86359274693555
mp-dxs,CoSb,Hexagonal,194,148.223,69.404,180.10170117473587
mp-dzx,NbN,Hexagonal,194,314.396,195.263,485.3165883573383
mp-ecq,ZrAl2,Hexagonal,194,113.59,89.522,212.6910001115522
mp-bpes,Na3Bi,Hexagonal,194,17.175,10.693,26.565792455559485
mp-eeh,MoS2,Hexagonal,194,25.575,18.973,45.63428990156533
mp-eei,Nd2Tl,Hexagonal,194,45.139,17.053,45.437124044074245
mp-efl,SbPt,Hexagonal,194,121.63,33.728,92.6225854326699
mp-brcl,VSe,Hexagonal,194,80.907,46.598,117.2786421700614
mp-btai,BaCu,Hexagonal,194,20.544,8.614,22.673093756228113
mp-btao,BaTl2,Hexagonal,194,25.239,17.206,42.060201521690004
mp-btas,Be2Cr,Hexagonal,194,182.568,162.402,375.7814678709939
mp-btcs,Mg3Cd,Hexagonal,194,39.972,19.676,50.707788755802625
mp-btcw,ScCd3,Hexagonal,194,61.151,29.259,75.70308201229832
mp-btda,TbCd3,Hexagonal,194,56.173,21.64,57.53213615974001
mp-bthx,Dy2Tl,Hexagonal,194,53.54,22.798,59.89294551243607
mp-btix,MgGa2,Hexagonal,194,49.454,17.471,46.89113449072259
mp-btjr,Ti2Ga,Hexagonal,194,120.013,64.019,163.06262403491976
mp-btjs,Ti3Ga,Hexagonal,194,118.806,55.181,143.3494857227544
mp-btlq,ScHg3,Hexagonal,194,63.522,22.049,59.287299588458005
mp-btlu,YHg3,Hexagonal,194,59.331,21.426,57.37183545198803
mp-btmh,Mg3Ir,Hexagonal,194,76.899,27.796,74.42120845051898
mp-btmn,Ir3W,Hexagonal,194,350.814,194.892,493.322220665836
mp-btod,MoRh3,Hexagonal,194,268.478,132.343,340.998612235105
mp-btoo,NbZn2,Hexagonal,194,140.627,82.962,207.98599676731183
mp-btqg,ZrPd3,Hexagonal,194,170.268,80.861,209.42994216659767
mp-btqk,Sn3Pt2,Hexagonal,194,102.187,30.087,82.19416845191418
mp-btre,Rh3W,Hexagonal,194,282.841,137.344,354.6306233356021
mp-btrn,Ti2Sn,Hexagonal,194,114.555,61.103,155.63702537008854
mp-btrp,SrTl2,Hexagonal,194,26.768,16.996,42.08160690647482
mp-btru,TiZn2,Hexagonal,194,105.49,65.278,162.34685179752088
mp-bupm,BaPt,Hexagonal,194,49.609,19.133,50.8604487556561