material_id,formula_pretty,symmetry.crystal_system,symmetry.number,bulk_modulus.vrh,shear_modulus.vrh,youngs_modulus_vrh
mp-yba,Th(SiAu)2,Tetragonal,139,127.616,51.748,136.75886320168618
mp-ybj,Ca(GeIr)2,Tetragonal,139,116.99,64.491,163.44065702917962
mp-ybk,Ca(GePd)2,Tetragonal,139,85.58,27.195,73.77087326324687
mp-bdfb,La2CuO4,Tetragonal,139,142.568,50.382,135.2178243746941
mp-bdhb,Sr(GeRu)2,Tetragonal,139,78.082,51.356,126.36400560220167
mp-bdhf,Ca(GeRu)2,Tetragonal,139,103.004,48.899,126.65476435203165
mp-bdim,Ca(MnGe)2,Tetragonal,139,80.263,54.912,134.144344131403
mp-bdjt,Ba(MnP)2,Tetragonal,139,82.846,48.364,121.4571659874302
mp-bdta,Ba2PbO4,Tetragonal,139,85.368,43.424,111.38584802756337
mp-bdtr,Eu(SiPd)2,Tetragonal,139,100.771,44.183,115.64718160382803
mp-bdyk,Th(FeGe)2,Tetragonal,139,145.046,72.532,186.50755066874152
mp-becu,Ba3In2O6,Tetragonal,139,87.964,35.899,94.8006335213532
mp-becy,Ce2SbO2,Tetragonal,139,78.176,22.121,60.64306373295825
mp-bekc,Pr(MnGe)2,Tetragonal,139,100.458,62.794,155.89902700951208
mp-bekx,Ba(CoAs)2,Tetragonal,139,76.172,35.045,91.1554807425985
mp-beme,U(SiNi)2,Tetragonal,139,186.818,66.072,177.3125936736863
mp-betl,Nd(FeGe)2,Tetragonal,139,124.467,47.545,126.5246650045374
mp-beyu,U(FeSi)2,Tetragonal,139,177.23,89.691,230.23462798186623
mp-bezd,Ce(CoGe)2,Tetragonal,139,121.349,58.575,151.3696851441714
mp-bezu,Nd(SiPt)2,Tetragonal,139,137.703,39.837,108.99990219363899
mp-bfbs,Dy(MnGe)2,Tetragonal,139,115.114,63.746,161.4384029744212
mp-bfcm,Sr2UO4,Tetragonal,139,96.41,40.606,106.82102663141683
mp-bfet,Tb(GeRu)2,Tetragonal,139,132.27,58.586,153.1470016864443
mp-bfgb,Y(FeGe)2,Tetragonal,139,129.611,49.23,131.09243595099332
mp-bfky,Gd(SiRh)2,Tetragonal,139,142.427,86.63,216.08033120520867
mp-bfmn,Th(MnGe)2,Tetragonal,139,133.86,65.888,169.8039419168799
mp-bfpu,Yb(GeRu)2,Tetragonal,139,113.282,47.997,126.17158331077265
mp-bfqq,U(CuGe)2,Tetragonal,139,97.198,40.432,106.52534989428538
mp-bfrr,Dy(NiGe)2,Tetragonal,139,114.065,46.8,123.50847183125747
mp-bgzy,Eu2CuO4,Tetragonal,139,134.635,52.259,138.81633400487542
mp-bhea,Ba(MnGe)2,Tetragonal,139,50.054,34.428,84.02043451974644
mp-bhgw,Tb(MnGe)2,Tetragonal,139,115.215,64.592,163.26588172202895
mp-bhmt,U(NiP)2,Tetragonal,139,198.349,57.604,157.5593420740947
mp-bhrk,La(MnGe)2,Tetragonal,139,93.376,59.464,147.15480392942118
mp-bhyd,CsBrF,Tetragonal,139,15.691,7.063,18.42451967267622
mp-bhyf,Na4I2O,Tetragonal,139,20.124,11.964,29.955648971466488
mp-bhzu,Rb2MnCl4,Tetragonal,139,20.776,9.004,23.602365502158914
mp-bjdo,Cs2MgH4,Tetragonal,139,13.137,9.216,22.408031093836755
mp-bjli,Na2H2Pd,Tetragonal,139,28.047,18.246,44.98334806176565
mp-bjlk,K2MgH4,Tetragonal,139,23.064,17.351,41.61689768092162
mp-bkgz,Rb2CaH4,Tetragonal,139,17.899,12.811,31.029903184579293
mp-fvlbp,Li2H2Pt,Tetragonal,139,49.367,26.895,68.28458470479325
mp-bogl,K2MgCl4,Tetragonal,139,21.759,10.672,27.51726068809333
mp-boip,Rb2MnBr4,Tetragonal,139,16.876,7.203,18.91754339368159
mp-bonp,AlPd5I2,Tetragonal,139,15.439,12.33,29.21318788684843
mp-boqm,U2BiN2,Tetragonal,139,81.939,42.907,109.59189418614315
mp-boqw,Na3PaF8,Tetragonal,139,42.892,19.864,51.622863821192944
mp-bqeb,Cs2CrCl4,Tetragonal,139,17.295,7.552,19.777353500344905
mp-bqhs,Li7Br3O2,Tetragonal,139,37.683,25.035,61.488261818892845
mp-bqhz,Na4Br2O,Tetragonal,139,25.283,14.596,36.721499386367405
mp-bqjb,K4Br2O,Tetragonal,139,15.726,8.724,22.087628635826988
mp-egg,Yb(FeSi)2,Tetragonal,139,119.518,70.986,177.76445204637523
mp-egr,Nd(CuSi)2,Tetragonal,139,115.656,75.0,185.00881583437607
mp-bqpe,Zn(BIr)2,Tetragonal,139,219.89,106.867,275.9043094723412
mp-bqre,U3(SiC)2,Tetragonal,139,136.797,80.702,202.32038218015734
mp-bqsy,Cs(FeAs)2,Tetragonal,139,43.521,26.483,66.05134665639368
mp-bqtj,Ba(P2Pd)2,Tetragonal,139,87.709,34.758,92.10703727277307
mp-ehh,Dy(SiRh)2,Tetragonal,139,153.451,88.803,223.32849386513124
mp-ehu,Ho(NiP)2,Tetragonal,139,151.827,83.385,211.44560902896083
mp-eif,Dy(CuSi)2,Tetragonal,139,119.315,75.813,187.68680428948863
mp-brfj,SrMnBi2,Tetragonal,139,32.353,18.785,47.2166011619074
mp-eim,Ho(SiNi)2,Tetragonal,139,131.02,71.958,182.46913977523448
mp-ejl,Ca(NiGe)2,Tetragonal,139,80.39,40.148,103.25496228467428
mp-brvj,SrZnBi2,Tetragonal,139,30.573,15.677,40.165707186487396
mp-ekb,Ce(MnSi)2,Tetragonal,139,123.478,70.832,178.38615090217692
mp-ekd,La(CoB)2,Tetragonal,139,125.812,83.203,204.52333068628582
mp-bsez,Rb2CdCl4,Tetragonal,139,19.054,7.96,20.96109701790486
mp-elb,Cs2UO4,Tetragonal,139,35.463,22.715,56.155335272338576
mp-bsim,La3(TaN3)2,Tetragonal,139,165.266,85.631,219.0586221430304
mp-bska,Rb4Br2O,Tetragonal,139,12.914,6.882,17.531723040504996
mp-bslk,BaCdSb2,Tetragonal,139,33.265,21.701,53.4746319631922
mp-elv,Th(GeRh)2,Tetragonal,139,145.97,68.15,176.91716298462634
mp-bspn,ZrTiAs,Tetragonal,139,137.302,70.614,180.84015346928624
mp-bsqp,Ca(AlZn)2,Tetragonal,139,62.198,40.313,99.45260289898506
mp-bsqr,Y(Al2Cr)4,Tetragonal,139,116.53,78.364,192.04356608420528
mp-emc,Nd(MnSi)2,Tetragonal,139,118.634,73.221,182.18203411609258
mp-bsqx,ZrAl5Ni2,Tetragonal,139,119.733,85.414,207.015697152355
mp-emf,Tl(FeSe)2,Tetragonal,139,38.004,22.879,57.165494035400435
mp-emt,Ce(FeSi)2,Tetragonal,139,142.193,77.717,197.22012553936574
mp-btag,BaCdBi2,Tetragonal,139,30.641,18.744,46.70781837404104
mp-btah,BaZnBi2,Tetragonal,139,31.416,17.133,43.492632962534
mp-epd,Tb(SiRh)2,Tetragonal,139,152.124,89.341,224.14381287599892
mp-btyp,Ba(AlGe)2,Tetragonal,139,43.029,19.745,51.37650804262524
mp-epo,Lu(SiRh)2,Tetragonal,139,158.887,83.91,214.0493773848451
mp-btzl,Sc(MnAl2)4,Tetragonal,139,153.967,97.394,241.30227872947196
mp-epp,UGeTe,Tetragonal,139,70.542,40.783,102.58045265422392
mp-bumd,Th(Al2Cr)4,Tetragonal,139,119.17,87.328,210.55283010893854
mp-bune,YZrSb,Tetragonal,139,78.942,41.125,105.1207146223615
mp-eru,Th(SiOs)2,Tetragonal,139,183.234,94.675,242.29466686427355
mp-ess,Er(FeB)2,Tetragonal,139,120.929,83.296,203.2270179675083
mp-etj,Sr(NiGe)2,Tetragonal,139,62.062,34.524,87.37101351094198
mp-etm,Ca(CoP)2,Tetragonal,139,91.812,81.218,188.16859798011518
mp-etu,Er(SiPd)2,Tetragonal,139,134.258,52.4,139.10300851981881
mp-eup,Er(CoSi)2,Tetragonal,139,131.977,94.295,228.4720535732499
mp-eur,Sr(CuGe)2,Tetragonal,139,77.539,40.884,104.31749896344071
mp-evo,Th(NiGe)2,Tetragonal,139,115.166,22.613,63.67166105332359
mp-ewk,Ce(AlZn)2,Tetragonal,139,72.027,50.611,123.01916245331694
mp-ewq,Tb(CoSi)2,Tetragonal,139,113.474,94.425,221.76315359195303
mp-ewx,Sr(FeP)2,Tetragonal,139,94.787,55.96,140.27498943644386
mp-ewz,Dy(SiPd)2,Tetragonal,139,133.933,53.071,140.63715828038778
mp-eyb,Tb(NiGe)2,Tetragonal,139,112.504,46.914,123.56634021632253
mp-eys,HoZrSb,Tetragonal,139,80.205,39.455,101.69027198557504
mp-eyv,Sr3Ti2O7,Tetragonal,139,139.441,83.293,208.38675982624162
mp-ezf,Ba2SnO4,Tetragonal,139,96.443,51.646,131.47021512427597
mp-ezw,Sr2SnO4,Tetragonal,139,108.931,63.505,159.51649353827077
mp-faf,Sr(PPd)2,Tetragonal,139,103.811,49.586,128.32607207376898
mp-fai,U(SiRu)2,Tetragonal,139,326.477,83.923,231.8986559875639
mp-fak,Y(CuSi)2,Tetragonal,139,118.289,76.153,188.09465907150482
mp-fbg,Eu(CuSi)2,Tetragonal,139,85.94,60.857,147.7058439109192
mp-fbj,Yb(SiRu)2,Tetragonal,139,133.202,67.203,172.58486030474992
mp-fcf,Ce(CoSi)2,Tetragonal,139,137.291,87.99,217.5038276687812
mp-fcj,Y(SiRh)2,Tetragonal,139,151.48,88.566,222.36181390260882
mp-fcx,Er(NiP)2,Tetragonal,139,151.308,83.931,212.5012981788772
mp-fcy,Tb(CuSi)2,Tetragonal,139,119.971,76.235,188.72929066509533
mp-fef,Nd(FeSi)2,Tetragonal,139,118.239,79.69,195.2136894433101
mp-fex,Lu(SiPd)2,Tetragonal,139,136.258,48.004,128.87740059284818
mp-fff,Y(CoB)2,Tetragonal,139,153.952,107.661,261.92657365451777
mp-caeu,K(FeAs)2,Tetragonal,139,48.787,24.423,62.791152034148396
mp-cakf,Li3TaO4,Tetragonal,139,103.312,91.621,212.14905671673014
mp-fhr,UGeSe,Tetragonal,139,83.522,53.059,131.36054073939894
mp-fhx,La(SiIr)2,Tetragonal,139,145.667,99.569,243.2772195743333
mp-fhz,Sc(SiNi)2,Tetragonal,139,151.528,61.909,163.46498900856355
mp-fir,Th(CoGe)2,Tetragonal,139,142.488,66.96,173.67475753604194
mp-cbjy,Li3NbO4,Tetragonal,139,104.609,90.318,210.40141770404188
mp-flm,Tb(SiRu)2,Tetragonal,139,152.051,79.93,204.0372999516866
mp-fmj,Sc(Al2Fe)4,Tetragonal,139,128.938,85.544,210.15596316353276
mp-foo,Eu(NiP)2,Tetragonal,139,108.198,74.64,182.0563591277296
mp-fqi,Sr(PRu)2,Tetragonal,139,87.317,50.755,127.55101921613274
mp-fqm,K2UO4,Tetragonal,139,60.113,29.379,75.79005351471979
mp-fqr,Ba2ZrS4,Tetragonal,139,55.272,28.767,73.54232700698417
mp-fre,Ce(SiPd)2,Tetragonal,139,124.834,56.202,146.60482422266801
mp-fsg,Y(MnSi)2,Tetragonal,139,125.819,76.237,190.27928058779707
mp-ftv,Ho(SiRh)2,Tetragonal,139,156.376,87.871,222.02596317767177
mp-fwg,Er(SiOs)2,Tetragonal,139,175.465,86.668,223.2475383117233
mp-fyd,Nd(SiNi)2,Tetragonal,139,147.126,70.97,183.41789170641826
mp-fyj,Nd(SiRu)2,Tetragonal,139,134.593,80.896,202.18149884355495
mp-fyk,Pr(CuSi)2,Tetragonal,139,108.486,73.831,180.5375775290579
mp-gai,Ca(NiP)2,Tetragonal,139,105.433,73.682,179.28214131970532
mp-gaj,Dy(SiIr)2,Tetragonal,139,175.786,105.149,263.0065738813958
mp-gaq,Sm(SiRu)2,Tetragonal,139,143.09,81.584,205.6648103763502
mp-gar,Sm(CoB)2,Tetragonal,139,152.954,97.846,241.94628738225424
mp-gat,TbZrSb,Tetragonal,139,79.598,40.544,103.97794717510685
mp-gbg,La(FeSi)2,Tetragonal,139,114.246,72.994,180.5332587243705
mp-gbi,Ce(SiRh)2,Tetragonal,139,143.283,87.696,218.50875520389528
mp-gbx,Ho(CuSi)2,Tetragonal,139,113.63,76.348,187.1325458371481
mp-gcb,Ba(AsRu)2,Tetragonal,139,76.622,39.593,101.32618919390335
mp-gcx,Sc(CoSi)2,Tetragonal,139,154.927,91.058,228.42241169475335
mp-gdo,Ho(SiPd)2,Tetragonal,139,133.284,52.879,140.10819167231756
mp-gdy,Nd2CuO4,Tetragonal,139,136.726,58.915,154.5469887847399
mp-ger,Dy(SiRu)2,Tetragonal,139,155.661,79.345,203.46439941756603
mp-gev,Pr2CuO4,Tetragonal,139,132.588,58.074,152.02602593026467
mp-gfj,Tm(NiGe)2,Tetragonal,139,108.431,44.072,116.44021303588592
mp-gfy,Sm2CuO4,Tetragonal,139,142.528,60.204,158.32042077295876
mp-ggq,Nd(CoSi)2,Tetragonal,139,120.144,85.498,207.31649677752117
mp-ggr,Nd(AgGe)2,Tetragonal,139,81.818,42.854,109.45258941132398
mp-ghm,Tb(SiPd)2,Tetragonal,139,130.983,53.315,140.83642822410053
mp-ghr,Ba(CuS)2,Tetragonal,139,67.265,28.683,75.34019713378284
mp-ghv,Ca(CoGe)2,Tetragonal,139,73.576,61.567,144.41871916966295
mp-gil,Sm(SiPd)2,Tetragonal,139,127.742,55.498,145.43273138465187
mp-gjb,Ho(NiGe)2,Tetragonal,139,115.228,46.459,122.86436036853902
mp-gjm,Nd(NiGe)2,Tetragonal,139,111.919,48.011,126.01386249244335
mp-gjp,Er(CuSi)2,Tetragonal,139,122.639,76.33,189.64520600026563
mp-gka,Sr(NiAs)2,Tetragonal,139,45.823,28.001,69.78792776334079
mp-gkg,Pr(CoB)2,Tetragonal,139,144.516,89.475,222.50478831714855
mp-gkh,Nd(SiPd)2,Tetragonal,139,123.29,57.139,148.47931961621418
mp-glm,Tl(NiSe)2,Tetragonal,139,38.486,13.208,35.556462406540966
mp-gmc,Sr(AsPd)2,Tetragonal,139,79.52,32.583,86.00259435058251
mp-gnb,TbScGe,Tetragonal,139,71.319,45.392,112.34208896891835
mp-gnv,Ho(CoGe)2,Tetragonal,139,135.84,69.868,178.92745959261646
mp-gon,Ce(SiIr)2,Tetragonal,139,166.749,109.844,270.2013214487675
mp-got,Pr(SiNi)2,Tetragonal,139,126.482,67.988,172.97148617226227
mp-gov,Ca(CuGe)2,Tetragonal,139,79.246,42.085,107.2664190934984
mp-gpm,Th(MnSi)2,Tetragonal,139,149.607,76.62,196.34173020377168
mp-gpu,Tb(SiNi)2,Tetragonal,139,120.154,73.586,183.33195912894425
mp-gqd,Tl(CoSe)2,Tetragonal,139,32.334,20.186,50.12669484930197
mp-gqm,Ba(PRu)2,Tetragonal,139,88.019,48.795,123.55357787388287
mp-gqq,Sr(FeAs)2,Tetragonal,139,84.292,42.202,108.49883371854223
mp-grw,Y(CuGe)2,Tetragonal,139,103.38,55.688,141.632759001498
mp-gvj,Th(SiPt)2,Tetragonal,139,161.712,55.529,149.47768180296487
mp-gwf,Yb(SiPd)2,Tetragonal,139,108.371,40.803,108.75927048011019
mp-gwz,Y(SiIr)2,Tetragonal,139,173.891,104.133,260.41636469928375
mp-gxc,Y(Al2Fe)4,Tetragonal,139,123.771,84.62,206.74423255171268
mp-gxo,K(CoSe)2,Tetragonal,139,50.314,24.198,62.5641403905447
mp-gym,Dy(SiNi)2,Tetragonal,139,114.571,73.379,181.40829524661225
mp-gzt,Nd(GePd)2,Tetragonal,139,107.798,38.891,104.14824837351809
mp-hag,PrScGe,Tetragonal,139,64.503,39.785,99.00068880897065
mp-ham,Ca(NiAs)2,Tetragonal,139,84.598,39.082,101.60044293147953
mp-hbj,Ce(SiOs)2,Tetragonal,139,168.404,82.371,212.47117931594346
mp-hbk,Eu(SiNi)2,Tetragonal,139,94.667,58.471,145.46435157618725
mp-hcj,U(SiPd)2,Tetragonal,139,141.952,48.272,130.07196895353152
mp-hdf,Pr(SiRh)2,Tetragonal,139,137.912,83.789,209.03387188985482
mp-hdm,Y(SiPd)2,Tetragonal,139,130.582,52.738,139.44191836826522
mp-hes,NdScGe,Tetragonal,139,65.782,40.817,101.46502624673018
mp-hez,Sr(CuAs)2,Tetragonal,139,56.86,20.546,55.01192951246822
mp-hfd,Er(NiGe)2,Tetragonal,139,122.05,47.358,125.8026328390261
mp-hft,Er(SiNi)2,Tetragonal,139,122.991,71.098,178.83415871984295
mp-hfv,Ba(FeP)2,Tetragonal,139,83.619,56.871,139.08212883130557
mp-hgb,Y(GeRh)2,Tetragonal,139,132.96,62.331,161.7215717751745
mp-hgh,UTeAs,Tetragonal,139,71.159,29.644,78.08842742502704
mp-hgi,Sm(SiPt)2,Tetragonal,139,140.382,34.47,95.58643212705437
mp-hgp,Tm(CuSi)2,Tetragonal,139,116.757,75.636,186.61184734695604
mp-hgq,Pr(SiRu)2,Tetragonal,139,130.298,79.764,198.73837701260788
mp-hgu,Y(CoGe)2,Tetragonal,139,136.227,70.145,179.60759489877324
mp-hhg,Nd(GeRh)2,Tetragonal,139,123.385,64.855,165.55759080251028
mp-hhk,Pr(CuGe)2,Tetragonal,139,95.907,53.319,134.94894439655172
mp-hhw,Yb(SiPt)2,Tetragonal,139,122.842,30.453,84.38581186979765
mp-hhz,Dy(FeSi)2,Tetragonal,139,148.31,82.764,209.34966014394706
mp-hio,La(SiPd)2,Tetragonal,139,120.576,54.617,142.35668622896875
mp-hiv,Na2HgO2,Tetragonal,139,42.323,23.423,59.32486210037767
mp-hjt,Dy(MnSi)2,Tetragonal,139,128.929,75.386,189.26889789321316
mp-hkh,Nd(CoGe)2,Tetragonal,139,111.275,67.306,168.03806325115735
mp-hki,Tl(CuSe)2,Tetragonal,139,29.141,15.456,39.40191549295775
mp-hle,Er(SiRu)2,Tetragonal,139,156.818,77.629,199.90151254098376
mp-hmy,DyZrSb,Tetragonal,139,79.781,39.479,101.66725326911076
mp-hnc,Rb2HgO2,Tetragonal,139,23.964,11.792,30.39113082548635
mp-hon,Y(NiGe)2,Tetragonal,139,102.131,47.692,123.8049758334863
mp-hoq,Pr(CoSi)2,Tetragonal,139,120.671,82.295,201.15680902662115
mp-hpf,LiCuO,Tetragonal,139,69.627,32.616,84.63288607311893
mp-hph,Y(CoSi)2,Tetragonal,139,133.147,94.082,228.44046677865063
mp-hpn,Dy(CoB)2,Tetragonal,139,155.789,107.738,262.66430919223444
mp-hqj,Ca(PRu)2,Tetragonal,139,102.347,78.667,187.8674620204922
mp-hqr,Th(SiRu)2,Tetragonal,139,168.505,88.638,226.2439400457458
mp-hqs,Ca(AsPd)2,Tetragonal,139,88.276,26.838,73.10540684207277
mp-hqt,Sm(NiGe)2,Tetragonal,139,101.792,47.319,122.9114697741675
mp-hqz,Ce(SiAu)2,Tetragonal,139,112.156,46.687,122.99472680246896
mp-hrc,Y(SiNi)2,Tetragonal,139,127.098,73.066,183.9485918918919
mp-hst,Ho(SiOs)2,Tetragonal,139,173.944,87.971,225.84055607466672
mp-hui,Ho(GeRu)2,Tetragonal,139,135.733,57.245,150.5678192957601
mp-huq,U2SbN2,Tetragonal,139,99.35,46.99,121.77170328077906
mp-hvk,Y(FeSi)2,Tetragonal,139,147.103,82.397,208.29933783267714
mp-hvo,Ca(SiNi)2,Tetragonal,139,115.307,57.367,147.61993915266507
mp-hww,Yb(CoSi)2,Tetragonal,139,110.853,83.937,201.0631899201913
mp-hxq,Lu(CuSi)2,Tetragonal,139,121.177,74.808,186.1232542484242
mp-hyy,Ca4P2O,Tetragonal,139,61.778,43.882,106.44317920214992
mp-hze,Er(SiRh)2,Tetragonal,139,157.308,88.318,223.18596516505366
mp-hzr,Tb(FeSi)2,Tetragonal,139,145.871,83.177,209.6776234240289
mp-hzs,Th(CrSi)2,Tetragonal,139,134.222,45.909,123.63145556930277
mp-iap,Pr(MnSi)2,Tetragonal,139,114.758,71.979,178.59689837190362
mp-iav,Tb(SiOs)2,Tetragonal,139,170.188,89.207,227.81636365212722
mp-ibr,Er(FeGe)2,Tetragonal,139,134.12,48.299,129.3677856649928
mp-ibs,Ce(CuSi)2,Tetragonal,139,113.036,75.241,184.73430630700207
mp-ibz,Nd2TeO2,Tetragonal,139,71.289,34.516,89.15867879846849
mp-ida,Ca(CuSi)2,Tetragonal,139,97.787,55.112,139.18763949000353
mp-idl,Er(CoGe)2,Tetragonal,139,134.9,69.45,177.8324264473268
mp-idp,Tl(CoS)2,Tetragonal,139,58.448,23.471,62.10043041018032
mp-idt,U2TeN2,Tetragonal,139,85.916,52.251,130.33194379336706
mp-idw,Th(SiPd)2,Tetragonal,139,141.173,63.454,165.55727705232118
mp-bfkch,Li3UO4,Tetragonal,139,94.691,64.714,158.12085991163661
mp-bfkjx,Ca4Bi2O,Tetragonal,139,44.568,29.289,72.07775406305792
mp-bfkso,Bi2SeO2,Tetragonal,139,77.867,26.569,71.56718648191567
mp-bfkyz,Bi2SeO2,Tetragonal,139,88.992,21.489,59.66457557069317
mp-ieo,La(CoSi)2,Tetragonal,139,117.558,76.385,188.35873497584254
mp-ieu,Sr2TiO4,Tetragonal,139,127.094,75.758,189.601534368983
mp-bfobg,Ba2CuF6,Tetragonal,139,57.176,21.226,56.66580192369549
mp-ifs,U(SiRh)2,Tetragonal,139,162.197,84.537,216.07210660482414
mp-iga,Pr(AgGe)2,Tetragonal,139,81.263,43.123,109.92478230607294
mp-bfrzu,Cs(CoS)2,Tetragonal,139,53.974,34.445,85.20886844530904
mp-ign,Ce(GeRh)2,Tetragonal,139,129.851,65.086,167.3049159311014
mp-bftiv,Tl(Cu3S2)2,Tetragonal,139,54.153,13.226,36.69094232290748
mp-bfufm,K(NiS)2,Tetragonal,139,30.804,22.279,53.85375351160946
mp-bfvqy,Tl(NiS)2,Tetragonal,139,54.929,16.781,45.69016534301198
mp-ihh,Ca(FeP)2,Tetragonal,139,93.804,79.373,185.73262199925162
mp-ihp,Ce(SiAg)2,Tetragonal,139,90.121,51.335,129.42963218608756
mp-bfxjz,Rb(CoS)2,Tetragonal,139,56.234,32.201,81.1193426977198
mp-iig,Nd(CoP)2,Tetragonal,139,122.962,88.035,213.21987177214442
mp-iil,Pr(FeSi)2,Tetragonal,139,114.059,77.796,190.15509491324443
mp-ikd,Sr(CoP)2,Tetragonal,139,88.052,45.893,117.29995556831342
mp-bghbn,La(SiOs)2,Tetragonal,139,136.757,80.697,202.30018384293885
mp-bghcy,Ba(MnSb)2,Tetragonal,139,29.349,20.062,49.017165471884866
mp-bghli,Ho(PRu)2,Tetragonal,139,167.766,99.097,248.38513885075406
mp-bghsz,K(CuSe)2,Tetragonal,139,29.409,13.033,34.06663512739482
mp-bghvn,Nd(NiAs)2,Tetragonal,139,120.915,51.797,135.9749031340612
mp-bghwn,Y(SiOs)2,Tetragonal,139,169.339,88.942,227.07111215678125
mp-bghxh,Ca(SiPd)2,Tetragonal,139,103.239,40.154,106.63681543768992
mp-bghyt,TmZrSb,Tetragonal,139,79.62,38.108,98.59417203431443
mp-bghyu,Tm(CuGe)2,Tetragonal,139,102.384,55.871,141.81654654388294
mp-bghze,Sm(NiAs)2,Tetragonal,139,97.913,52.411,133.42615683085367
mp-bgiih,Nd(PRu)2,Tetragonal,139,124.803,85.444,208.70366788517197
mp-bgijv,Yb(PRu)2,Tetragonal,139,123.67,88.753,214.8601596692209
mp-bgikn,Ba(AsRh)2,Tetragonal,139,73.313,34.329,89.082612806173
mp-bgill,Cs3Mg2Cl7,Tetragonal,139,21.386,10.643,27.386007967807917
mp-bgiqy,Ba(NiAs)2,Tetragonal,139,64.021,30.44,78.82677159409087
mp-bgiul,Tm(SiRu)2,Tetragonal,139,158.852,76.801,198.4251253133149
mp-bgivq,Sr(SiPd)2,Tetragonal,139,90.986,44.751,115.34275193337298
mp-bgizt,Er(CoB)2,Tetragonal,139,150.78,113.309,271.83390968604203
mp-bgjgb,Y(SiRu)2,Tetragonal,139,153.522,80.006,204.4947392539754
mp-bgjib,Dy(FeB)2,Tetragonal,139,126.743,81.322,200.98092781512767
mp-bgjix,K(NiSe)2,Tetragonal,139,36.261,17.982,46.293596166134186
mp-iku,Er(FeSi)2,Tetragonal,139,132.768,79.147,198.08043142437657
mp-bgjqi,Y(NiP)2,Tetragonal,139,154.034,82.948,210.97387411797084
mp-bgjwb,Dy(PRu)2,Tetragonal,139,164.779,99.379,248.23341491386455
mp-bgkam,Tl(CuTe)2,Tetragonal,139,27.8,11.85,31.127244094488187
mp-bgkcd,Zr(FeSi)2,Tetragonal,139,186.785,89.169,230.78267313448004
mp-bgkec,Ca(CoAs)2,Tetragonal,139,93.548,47.963,122.88717074195011
mp-bgkeo,Sr(POs)2,Tetragonal,139,94.67,47.979,123.13524655937397
mp-bgkfw,Zr(CoSi)2,Tetragonal,139,150.78,109.355,264.1948425747069
mp-bgkii,K(CoAs)2,Tetragonal,139,37.779,28.456,68.23575928289831
mp-bgkns,CsAuBr3,Tetragonal,139,9.584,4.436,11.529215861154634
mp-bgkso,La(CoAs)2,Tetragonal,139,106.913,49.656,128.99700954926496
mp-bgktl,Ce(NiP)2,Tetragonal,139,140.681,70.203,180.57242554942044
mp-ilf,K2CuF4,Tetragonal,139,43.612,18.902,49.54778490429952
mp-bglcl,Pr(NiP)2,Tetragonal,139,168.532,79.991,207.19276368498618
mp-bglec,Nd(NiP)2,Tetragonal,139,153.813,81.693,208.21643482799763
mp-bglip,Rb(CoSe)2,Tetragonal,139,47.913,24.585,62.98252147643831
mp-bglms,Ba(ZnAs)2,Tetragonal,139,47.429,24.024,61.66103663618161
mp-bglwm,Y(SiAu)2,Tetragonal,139,114.468,42.308,113.00195300120298