material_id,formula_pretty,symmetry.crystal_system,symmetry.number,bulk_modulus.vrh,shear_modulus.vrh,youngs_modulus_vrh
mp-joz,Ca5P3O12F,Hexagonal,176,83.004,46.252,117.02039216430043
mp-jwn,Sr5P3O12F,Hexagonal,176,75.339,40.323,102.65469127055643
mp-jji,LiAlSiO4,Hexagonal,181,114.023,45.755,121.07064360379967
mp-bjfh,LiH6ClO7,Hexagonal,186,20.3,13.733,33.6180925327938
mp-bjpq,SrHClO,Hexagonal,186,40.872,18.806,48.91565306670815
mp-bfuzs,CuCSN,Hexagonal,186,47.668,19.3,51.01495711750788
mp-juc,SrYSi4N7,Hexagonal,186,170.189,102.31,255.69295194631226
mp-krc,CaZnSO,Hexagonal,186,70.349,33.123,85.88905001842978
mp-jwf,BaTi(SiO3)3,Hexagonal,188,108.915,57.615,146.9357881283172
mp-sim,Er3Al3NiGe2,Hexagonal,189,85.284,61.119,148.0017262273205
mp-bfde,Dy3Mn3Ga2Si,Hexagonal,189,75.386,40.184,102.36387507790734
mp-bghjs,Ho3Mn3Ga2Si,Hexagonal,189,81.648,44.054,112.01561577588774
mp-bgjel,Lu3Mn3Ga2Si,Hexagonal,189,92.061,53.078,133.5649342679516
mp-cdvmt,Yb3In3Ge2Au,Hexagonal,189,54.772,37.631,91.8564088003288
mp-bjko,PH6NO4,Orthorhombic,19,31.399,10.701,28.82806431962478
mp-cqiyf,Li4BH10N3,Cubic,199,20.395,12.493,31.1239802247618
mp-cqbhn,CuH10SO9,Triclinic,2,31.174,13.415,35.196357575020805
mp-cqfhu,MgH22SO15,Triclinic,2,27.639,11.1,29.36847697756789
mp-bfpwi,KNaS2O7,Triclinic,2,23.283,12.267,31.30343719859711
mp-jan,Li3Al(BO3)2,Triclinic,2,66.385,39.258,98.38088095028375
mp-bnqij,Mg3Si4(HO6)2,Triclinic,2,54.317,30.348,76.75006515294957
mp-bnsbm,KAlSi3O8,Triclinic,2,60.988,31.661,80.97132026557951
mp-brehe,CaAl2(SiO4)2,Triclinic,2,84.622,42.222,108.60349205641567
mp-brock,SrP2(H2O3)2,Triclinic,2,25.933,16.32,40.47045803716572
mp-cdkug,LiIn(IO3)4,Triclinic,2,29.761,21.039,51.08024791972589
mp-bhky,CaTi4(CuO4)3,Cubic,204,202.999,107.341,273.7688646016266
mp-pkn,AgB(CN)4,Cubic,215,32.863,2.992,8.711617960051584
mp-ucs,LiB(CN)4,Cubic,215,28.204,6.383,17.805760624210123
mp-bkrbk,Ca4Mg4Fe3H22,Cubic,215,57.274,44.04,105.16497873641494
mp-cfjxq,AlVFeCo,Cubic,216,204.053,82.704,218.58120781794395
mp-cfxyi,TiFeCoGe,Cubic,216,197.425,72.561,193.92481578163637
mp-cfxyu,MnFeCoGe,Cubic,216,205.404,88.054,231.1339669159096
mp-rmc,LiMgSnPt,Cubic,216,86.934,37.269,97.82732709320932
mp-leo,LiMgSnAu,Cubic,216,61.1,16.802,46.17355048925048
mp-lep,LiMgSnPd,Cubic,216,73.754,33.072,86.31457293165681
mp-cevts,TiGaFeCo,Cubic,216,192.595,113.059,283.6695157589847
mp-cevtz,TiFeCoSi,Cubic,216,215.232,90.291,237.6422580942326
mp-cevub,TiFeCoSb,Cubic,216,170.979,68.732,181.831174864055
mp-cevuc,TiFeCoAs,Cubic,216,187.342,52.824,144.85709404244938
mp-cevui,TiAlFeCo,Cubic,216,189.547,126.046,309.52755767417557
mp-bevxq,Na4Al3(SiO4)3,Cubic,218,24.097,28.081,60.67439836807078
mp-cetsw,La8MgAl7O24,Cubic,221,183.604,99.276,252.34619980064238
mp-cgfnb,Ba4Cu3PbO9,Cubic,223,97.683,44.106,115.00840142367755
mp-bkpun,Ba4Y(CuO3)3,Cubic,223,103.322,50.961,131.2967219908735
mp-prc,Ba2LiOsO6,Cubic,225,82.233,43.765,111.51242565343725
mp-cjlcg,Ba2TaInO6,Cubic,225,140.02,78.541,198.50701739467027
mp-rji,Sr2MgReO6,Cubic,225,131.312,74.578,188.12004982561888
mp-tni,KRb2GaF6,Cubic,225,35.653,15.358,40.28899471046543
mp-ukr,K2NaCuF6,Cubic,225,42.815,24.134,60.94990064163483
mp-uks,K2NaTlF6,Cubic,225,37.066,18.04,46.5655284049583
mp-ukt,K2NaYF6,Cubic,225,36.926,19.851,50.50304476035183
mp-ulf,Ba2MgUO6,Cubic,225,104.102,57.23,145.10038843306197
mp-ulj,Rb2NaErF6,Cubic,225,34.753,19.848,50.021335589451034
mp-ulk,Cs2NaErF6,Cubic,225,31.129,17.633,44.49719791929382
mp-upp,Cs2NaYF6,Cubic,225,32.42,16.618,42.57890057781134
mp-uqb,Sr2TbReO6,Cubic,225,142.094,43.535,118.50265233058828
mp-uty,Rb2NaRhF6,Cubic,225,40.086,21.126,53.90787871329147
mp-utz,K2NaRhF6,Cubic,225,43.639,22.615,57.85154798348227
mp-vbb,Ba2YbSbO6,Cubic,225,57.328,4.985,14.533735965056024
mp-bevp,Ba2CaIrO6,Cubic,225,108.746,57.48,146.60891779900862
mp-bfnp,MgTe(PbO3)2,Cubic,225,122.031,61.486,157.93287929014284
mp-bgjn,Ba2CePtO6,Cubic,225,137.231,62.307,162.35035285443038
mp-bhfd,Ba2MgReO6,Cubic,225,121.859,68.97,174.06986372014993
mp-bifx,Ba2YBiO6,Cubic,225,113.974,68.485,171.1705319597375
mp-bfhos,Ba2ZnReO6,Cubic,225,124.748,53.073,139.44391502327312
mp-bfwlx,Rb2NaBiF6,Cubic,225,32.377,16.405,42.10384516805243
mp-bghsu,Cs2LiYCl6,Cubic,225,19.256,9.676,24.86343490896151
mp-bgltr,Cs2LiLuCl6,Cubic,225,19.84,9.195,23.893752455795678
mp-bgmwi,Cs2KScCl6,Cubic,225,16.957,7.863,20.43102834814588
mp-bgnjn,Cs2NaYBr6,Cubic,225,15.187,8.079,20.58653909395973
mp-iza,K2NaScF6,Cubic,225,41.223,23.479,59.19804110827194
mp-izh,Sr2GaSbO6,Cubic,225,147.444,88.417,221.06307375426044
mp-izq,KRb2TiF6,Cubic,225,34.699,22.332,55.162048359158106
mp-jeq,Cs2NaScF6,Cubic,225,34.148,17.639,45.14401828735125
mp-jhe,Ba2LiReO6,Cubic,225,84.792,43.501,111.44476118666428
mp-jps,Ba2YSbO6,Cubic,225,129.55,78.167,195.2345644010394
mp-jti,K2NaAlF6,Cubic,225,45.766,27.366,68.45388915609969
mp-juj,Ba2YTaO6,Cubic,225,137.826,79.834,200.7427509486897
mp-jxe,K2NaInF6,Cubic,225,39.509,20.537,52.5122749022033
mp-kia,Cs2KCuF6,Cubic,225,34.359,16.596,42.883504850718204
mp-ksx,Ba2YNbO6,Cubic,225,133.322,75.75,191.06415066972733
mp-lrl,Sr2YReO6,Cubic,225,142.445,51.221,137.2160794243516
mp-nvp,KRb2ScF6,Cubic,225,33.983,13.221,35.109865303464446
mp-ool,K2LiAlF6,Cubic,225,49.406,25.226,64.67125875786998
mp-cehpv,Ca6Al2NF,Cubic,225,42.035,17.548000000000002,46.21324733907402
mp-cehpy,Sr6In2NF,Cubic,225,31.841,11.569,30.957651001008482
mp-cehqa,Ca6In2NF,Cubic,225,40.468,13.77,37.10180389719917
mp-cehqb,Cs2LiInBr6,Cubic,225,16.592,8.914,22.680350860453224
mp-cehtw,Na2LiNF6,Cubic,225,59.139,30.306,77.6534076919744
mp-cehue,LiTl2InCl6,Cubic,225,22.841,10.42,27.133868487389638
mp-cehug,Cs2NaSbCl6,Cubic,225,17.435,9.454,24.020376139510034
mp-cehui,Cs2ICl6F,Cubic,225,14.69,4.966,13.389241781548252
mp-cehup,Rb2NaAsF6,Cubic,225,36.315,19.293,49.1712881907079
mp-cehut,Cs2NaNF6,Cubic,225,35.858,18.173,46.63989523408113
mp-cehuu,Rb2AlInH6,Cubic,225,23.765,14.191,35.50572064431603
mp-cehuz,NaTl2InF6,Cubic,225,39.944,17.814,46.525592781482935
mp-cehvb,Cs2AlInH6,Cubic,225,23.35,15.191,37.45132799943689
mp-cehvd,Cs2TlInF6,Cubic,225,31.424,11.015,29.587871627076467
mp-cehve,Cs2InBiF6,Cubic,225,27.515,10.349,27.58816086076603
mp-cehvf,Rb2AlTlH6,Cubic,225,23.369,14.582,36.213685626232454
mp-cehvg,Sr6Sn2NO,Cubic,225,43.347,28.342,69.81093972206612
mp-cehvh,Rb2NaSbF6,Cubic,225,33.711,17.354,44.43682636913755
mp-cehvi,Ba6Tl2NCl,Cubic,225,22.374,11.356,29.138259078977548
mp-cehvl,Rb2NaSbCl6,Cubic,225,18.041,9.127,23.429910877470352
mp-cehvo,Rb2NaTlF6,Cubic,225,34.898,17.791,45.620548328366745
mp-cehvr,LiTl2InF6,Cubic,225,41.494,13.628,36.84977255810586
mp-cehvt,Cs2TlGaH6,Cubic,225,22.583,15.57,37.98120224678645
mp-cehwa,Cs2TlSiH6,Cubic,225,16.605,10.145,25.285515760507003
mp-cehwb,NaTl2GaF6,Cubic,225,42.375,18.37,48.151886662771915
mp-cehwc,Cs2LiTlF6,Cubic,225,33.191,8.613,23.7818825633631
mp-cehwd,Rb2NaTlCl6,Cubic,225,17.958,8.845,22.792879191313638
mp-cehwg,Rb2InGaF6,Cubic,225,37.52,10.4,28.561093038386467
mp-cehwi,Cs2NaMgF6,Cubic,225,31.063,12.854,33.887707986382885
mp-cehwk,Cs2CaSnCl6,Cubic,225,23.328,11.223,29.015864346669627
mp-cehwn,Rb2BrCl6F,Cubic,225,18.72,8.094,21.223225324493416
mp-cehwp,Cs2AlTlH6,Cubic,225,23.081,15.28,37.55308164641577
mp-cehws,Rb2NaInF6,Cubic,225,38.727,20.572,52.43195100655927
mp-cehwt,Rb2LiTlCl6,Cubic,225,19.666,10.376,26.472305820624438
mp-cehwu,Cs2KNF6,Cubic,225,34.612,17.281,44.44602944260508
mp-cehwx,Rb2LiInCl6,Cubic,225,20.952,10.025,25.938093604643182
mp-cehwz,Cs2KPbF6,Cubic,225,26.386,13.579,34.77209146295438
mp-cehxe,Ca6Sn2NF,Cubic,225,45.559,37.923,89.05845139175258
mp-cehxg,Sr6Sn2NF,Cubic,225,37.078,29.733,70.3849948285769
mp-cehxt,Cs2RbInF6,Cubic,225,28.556,9.87,26.55100043961565
mp-cehxw,Cs2NaAsCl6,Cubic,225,18.551,10.352,26.185282448299372
mp-cehze,Cs2NaAlH6,Cubic,225,23.548,15.331,37.79156140738586
mp-cehzg,Cs2NaCaCl6,Cubic,225,16.182,4.943,13.458629512610068
mp-cesua,Cs2TlInBr6,Cubic,225,14.846,4.623,12.564787575517181
mp-benf,K2Cd(CN)4,Cubic,227,14.761,5.221,14.011082518584354
mp-bfpgo,BaAg2SnS4,Orthorhombic,23,31.441,13.867,36.26888920417784
mp-bgjxa,BaAg2SnSe4,Orthorhombic,23,28.003,11.553,30.468888585420984
mp-ixc,Ca3Al2(SiO4)3,Cubic,230,153.627,97.534,241.49548698011336
mp-izp,Mg3Al2(SiO4)3,Cubic,230,158.13,84.574,215.33261458698593
mp-uru,CdCu2GeS4,Orthorhombic,31,68.712,27.986,73.92199916282964
mp-behm,MnCu2GeS4,Orthorhombic,31,70.597,27.746,73.59639328370982
mp-cgaxn,Li2PNO2,Orthorhombic,36,87.664,60.241,147.04161770611293
mp-rjm,Na3PS3O,Orthorhombic,36,25.786,12.971,33.325198485536205
mp-bieb,SrTa2Bi2O9,Orthorhombic,36,86.266,65.455,156.7259802376539
mp-crhsu,TaB2Mo3C2,Orthorhombic,38,315.136,199.102,493.3970614918174
mp-bfwep,Ag5P(S2Cl)2,Orthorhombic,38,40.593,10.303,28.497956655713875
mp-cppoz,CsP(HO2)2,Monoclinic,4,21.448,10.388,26.832098913450732
mp-bfrkb,KSb(PS3)2,Monoclinic,4,10.832,6.848,16.96822448149654
mp-cqcgt,Na2Al2(SiO4)3,Orthorhombic,43,46.316,26.647,67.07715853739546
mp-bjln,KP(HO2)2,Orthorhombic,43,24.639,16.417,40.30028745544314
mp-bepe,Ba2YCu3O7,Orthorhombic,47,107.52,55.659,142.40453578482308
mp-bext,Ba4Y2Cu6O13,Orthorhombic,47,93.404,48.754,124.58542081552498
mp-bhpv,Ba2NdCu3O7,Orthorhombic,47,107.725,55.03,141.06889319284517
mp-bfloh,LiScAs2O7,Monoclinic,5,88.172,46.083,117.73725119527109
mp-kmh,CaZrSi2O7,Monoclinic,5,139.562,61.97,161.94100200559234
mp-bkqhu,HgH2NCl,Orthorhombic,51,29.989,10.733,28.767104597815297
mp-bfszn,TlHCO2,Orthorhombic,52,7.668,3.731,9.630962109594165
mp-bjih,CuH4(ClO)2,Orthorhombic,53,7.042,5.065,12.256483906685505
mp-jql,KCSN,Orthorhombic,57,15.519,8.426,21.404213047669277
mp-ndf,CsNa2BO3,Orthorhombic,59,47.016,21.559,56.10189903263697
mp-cfpzs,CrFeCoNi,Monoclinic,6,191.177,97.13,249.18878254438533
mp-bxhnu,Ca5Al2(SiN4)2,Orthorhombic,60,125.918,75.063,187.85965523820883
mp-bjac,LiB(HO)4,Orthorhombic,61,41.323,27.904,68.33138825202636
mp-bjaz,CaH2(CO2)2,Orthorhombic,61,23.946,12.259,31.415937857474105
mp-beuyh,Ca2SiH2O5,Orthorhombic,61,71.587,36.758,94.15811335922932
mp-bfqrl,Na2BHO3,Orthorhombic,62,47.14,18.023,47.95718833689782
mp-bfviq,AlBPbO4,Orthorhombic,62,74.458,45.124,112.62126767424711
mp-biytj,CsCSN,Orthorhombic,62,11.126,4.588,12.100689880419322
mp-jfk,LiScSiO4,Orthorhombic,62,109.06,64.49,161.6144065156892
mp-bkqgt,HPbBrO,Orthorhombic,62,28.159,8.568,23.33706064807351
mp-jpt,CaMgSiO4,Orthorhombic,62,100.479,54.985,139.50749486563677
mp-jvd,NaCSN,Orthorhombic,62,18.759,8.919,23.09656557150746
mp-jwm,LiTiPO5,Orthorhombic,62,97.252,58.853,146.9219204412893
mp-kca,KBaPO4,Orthorhombic,62,55.459,26.743,69.11899509631317
mp-cpwli,CaAl2(SiO5)2,Orthorhombic,63,106.023,64.802,161.50223447061808
mp-bidw,BiPbClO2,Orthorhombic,63,43.224,17.959,47.32297650222513
mp-bify,SbPbClO2,Orthorhombic,63,46.555,21.923,56.845974855806126
mp-bffiz,BaZnSO,Orthorhombic,63,59.92,35.008,87.90468896669894
mp-bfnww,CuBiSCl2,Orthorhombic,63,44.718,18.654,49.130452253808706
mp-bfqqg,AgBiSCl2,Orthorhombic,63,36.771,14.436,38.296382367794536
mp-bglja,HoSiRu2C,Orthorhombic,63,185.265,76.705,202.20832636363633
mp-bkqqv,KHCO2,Orthorhombic,63,18.439,10.788,27.082359700476513
mp-nuk,KZrCuSe3,Orthorhombic,63,30.478,18.801,46.78325306844469
mp-obn,BaDyCuTe3,Orthorhombic,63,36.445,14.922,39.39005939303218
mp-cgfng,K2Cu(ClF)2,Orthorhombic,64,19.095,10.273,26.13260331862992
mp-bgnqc,Rb2Cu(BrCl)2,Orthorhombic,64,12.111,6.631,16.822743901871338
mp-ojv,Na2LiAlP2,Orthorhombic,64,40.227,27.656,67.49941827055959
mp-jer,Ba2Ho(CuO2)4,Orthorhombic,65,104.048,39.752,105.78422279309797
mp-kat,Ba2Pr(CuO2)4,Orthorhombic,65,102.385,40.374,107.05071493314226
mp-jdm,Mg2Al4Si5O18,Orthorhombic,66,123.273,50.367,132.9887733503734
mp-bfpiz,H5CNO2,Monoclinic,7,18.19,6.13,16.532822075782537
mp-jlv,Na2ZnSiO4,Monoclinic,7,77.843,34.457,90.07980364272761
mp-brami,SrTaNO2,Monoclinic,7,151.127,92.324,230.11305069955378
mp-bjsu,LiLa2HO3,Orthorhombic,71,125.243,72.439,182.19127446180892
mp-bjsv,LiCe2HO3,Orthorhombic,71,123.514,67.366,171.00805903523116
mp-bjsw,LiNd2HO3,Orthorhombic,71,133.492,86.992,214.4030471251446
mp-nku,K2NaAlP2,Orthorhombic,72,24.93,16.531,40.61563572453215
mp-jjb,Na2MgAlF7,Orthorhombic,74,64.198,40.586,100.56548697143835
mp-cgbxv,SiGeN2O,Monoclinic,8,117.612,76.296,188.19367087050142
mp-fvqnr,MgNb2(PbO3)3,Monoclinic,8,76.292,44.811,112.42217316861964
mp-qnv,LiZnPS4,Tetragonal,82,31.32,15.461,39.829161495508174
mp-gfdgv,Na2CdSnS4,Tetragonal,82,30.022,9.886,26.724602089002715
mp-bjzne,LiCaUF8,Tetragonal,82,44.136,14.907,40.19562276753895
mp-ndh,LiGeBO4,Tetragonal,82,89.133,60.304,147.62052189940283
mp-ndi,LiSiBO4,Tetragonal,82,94.759,73.016,174.28359440571185
mp-sij,Ba2YTaO6,Tetragonal,87,135.914,80.852,202.41809877321458
mp-sjz,Sr2TaGaO6,Tetragonal,87,159.165,88.394,223.75956961524255
mp-wre,Rb2NaHoF6,Tetragonal,87,34.367,17.647,45.203813239142676
mp-jim,Sr2GaSbO6,Tetragonal,87,144.046,47.009,127.19087404491732
mp-crkfs,Rb3H(SeO4)2,Monoclinic,9,19.292,8.997,23.359668565788883
mp-crtxj,Cs3H(SeO4)2,Monoclinic,9,17.551,7.136,18.85288972887989
mp-jtu,K2Cu(PO3)4,Monoclinic,9,34.223,20.176,50.58691222271968
mp-cccut,Li6PS5I,Monoclinic,9,26.78,13.335,34.31013290632506
mp-chjz,Cs2KZrOF5,Tetragonal,107,29.868,16.081,40.90235863178312
mp-ckeg,Cs2RbZrOF5,Tetragonal,107,28.677,13.976,36.06855288129831
mp-bfrto,BaCSNCl,Monoclinic,11,26.639,11.927,31.134425515003706
mp-bxhne,BaNaScSi2O7,Monoclinic,11,88.541,48.571,123.18734348523525
mp-cgdjc,Sr2CuC(NO)2,Tetragonal,123,76.475,35.049,91.2125595521677
mp-kdj,KY2Ti2S2O5,Tetragonal,123,73.072,31.84,83.40574341979479
mp-kep,Ba2CaCu2HgO6,Tetragonal,123,73.578,34.342,89.15515800780943
mp-bfibq,YCu2Bi2(SeO2)2,Tetragonal,139,61.482,33.01,83.99716439187698
mp-nzp,Sr2ZnCu2(SO)2,Tetragonal,139,82.152,42.477,108.69694543717749
mp-bjvi,KPH3O4F,Monoclinic,14,19.525,10.781,27.315462613184152
mp-bkbe,K2ZnH12(SO7)2,Monoclinic,14,27.544,12.739,33.112236885426384
mp-bgngi,KMnAg3(CN)6,Trigonal,149,34.471,16.27,42.17464911474478
mp-xwq,Sr3TaGa3(SiO7)2,Trigonal,150,93.461,46.289,119.18972566060148
mp-keg,KBe2BO3F2,Trigonal,155,49.645,34.42,83.87569523601756
mp-cgqxf,Te2Mo3W(Se2S)2,Trigonal,156,16.34,11.578,28.09763820588138
mp-cgafn,BaNa2Mg(PO4)2,Trigonal,164,82.728,46.497,117.48105355961191
mp-bfrig,LiAsH6(OF2)3,Hexagonal,186,16.616,9.562,24.069007372496213
mp-ked,KCaCO3F,Hexagonal,187,51.664,29.357,74.04596950349608
mp-chod,BaLaMgTaO6,Cubic,216,141.408,37.417,103.15281403514852
mp-bigf,Na4Al3Si3ClO12,Cubic,218,56.124,31.02,78.58238204140586
mp-keu,Cs2LiCo(CN)6,Cubic,225,25.8,8.334,22.571614528658408
mp-cdphk,H6PbCBr3N,Monoclinic,6,13.813,5.918,15.535359207720086
mp-cdphl,H6PbCI3N,Monoclinic,6,10.549,4.636,12.130928423779732
mp-bjjv,Ca2Al3Si3HO13,Orthorhombic,62,118.621,64.867,164.59795037910297
mp-bkpvj,AgH4WS4N,Tetragonal,82,8.86,6.91,16.45277396237683
mp-chhqt,BaYCuSbO5,Tetragonal,99,78.076,35.946,93.49041382220346
mp-cqhqp,MgB2H4C8(N4O)2,Tetragonal,122,27.179,11.096,29.300612697418845
mp-cdphj,H3PbCI3NF3,Monoclinic,6,9.507,5.147,13.080455061185695