material_id,formula_pretty,symmetry.crystal_system,symmetry.number,bulk_modulus.vrh,shear_modulus.vrh,youngs_modulus_vrh
mp-bxfjt,NbZnCo2,Cubic,225,192.655,69.361,185.7869004103033
mp-bxfkn,Hf2CoRe,Cubic,225,177.868,87.341,225.1673189928254
mp-bxfko,ZrAlAu2,Cubic,225,135.096,19.536,55.91284650584713
mp-bxfkt,MgSnPd2,Cubic,225,112.134,33.55,91.52230911037107
mp-bxfku,DyCdHg2,Cubic,225,63.398,20.259,54.926376616156574
mp-bxfla,Hf2FeIr,Cubic,225,180.435,67.035,178.94457379919123
mp-bxflc,NdAgAu2,Cubic,225,81.37,9.329,26.95680842332869
mp-bxfld,NdAgHg2,Cubic,225,64.746,16.75,46.26073283788651
mp-bxflf,Be2NiRh,Cubic,225,194.531,107.76,272.8909038363904
mp-bxflg,Zr2CoTc,Cubic,225,93.62,69.086,166.34132660467614
mp-bxflh,Zr2CuOs,Cubic,225,162.384,48.901,133.32013785204077
mp-bxfli,Na2TlBi,Cubic,225,22.587,16.745,40.28085384469742
mp-bxflm,MgTlRh2,Cubic,225,131.037,56.136,147.3644504871485
mp-bxfln,MgTaRu2,Cubic,225,198.121,91.46,237.78922541238774
mp-bxflo,HoCdAg2,Cubic,225,73.061,16.491,46.01118731383182
mp-bxflr,MgZrPd2,Cubic,225,121.633,41.79,112.48739855270242
mp-bxfls,MgTiIr2,Cubic,225,191.279,107.865,272.3928989719848
mp-bxflt,HfAlRu2,Cubic,225,195.913,81.051,213.68516435203873
mp-bxflu,MgZrRh2,Cubic,225,149.687,63.086,165.94529839674937
mp-bxfma,Hf2TcRh,Cubic,225,187.509,87.375,226.88403770876226
mp-bxfmd,MgTiRh2,Cubic,225,161.554,76.667,198.58718267183772
mp-bxfme,MgZrAu2,Cubic,225,114.52,36.177,98.19140710544403
mp-bxfmf,MgZrIr2,Cubic,225,178.265,83.49,216.6478301268832
mp-bxfmg,MgZnAu2,Cubic,225,94.828,25.037,69.03530850572335
mp-bxfmi,NdMgHg2,Cubic,225,58.214,23.305,61.683659919069235
mp-bxfmj,NdMgZn2,Cubic,225,56.12,32.136,80.95548479770171
mp-bxfmk,HfPaTc2,Cubic,225,171.303,46.246,127.28388899858075
mp-bxfml,Hf2ReOs,Cubic,225,217.65,103.317,267.607214713851
mp-bxfmo,LiTiIr2,Cubic,225,190.484,77.224,204.09176190270645
mp-bxfmq,Mg2AgPt,Cubic,225,84.193,30.478,81.58889653320709
mp-bxfmr,Mg2AgRh,Cubic,225,88.2,20.608,57.35684272530925
mp-bxfmu,MnGeRu2,Cubic,225,227.345,109.437,282.9153689391412
mp-bxfmx,Hf2CuIr,Cubic,225,160.206,49.295,134.12804164079765
mp-bxfmy,Mg2PtRh,Cubic,225,120.332,58.45,150.9148939315192
mp-bxfnb,MnBe2Ir,Cubic,225,193.511,108.004,273.18743712538327
mp-bxfnd,MnBe2Rh,Cubic,225,171.181,98.352,247.63062847057097
mp-bxfne,MnCuPd2,Cubic,225,143.606,48.766,131.42184010308935
mp-bxfnh,MnGaRh2,Cubic,225,188.351,86.0,223.91982526768174
mp-bxfni,MnAlIr2,Cubic,225,228.585,102.886,268.39051836006496
mp-bxfnl,MnV2Cr,Cubic,225,231.986,93.042,246.21035831178705
mp-bxfnn,Mn2CrCo,Cubic,225,153.099,93.542,233.14324771226342
mp-bxfnp,MnSbRu2,Cubic,225,200.874,93.704,243.2829962747334
mp-bxfnr,Dy2CuOs,Cubic,225,103.481,44.291,116.2828844683622
mp-bxfnt,Be2PdPt,Cubic,225,194.226,42.134,117.87812102840535
mp-bxfnu,CaAcZn2,Cubic,225,38.641,23.217,58.028984282018115
mp-bxfny,MnSiRu2,Cubic,225,247.412,124.181,319.1475076643233
mp-bxfoa,MnInRh2,Cubic,225,155.882,66.691,175.10173946030318
mp-bxfob,Mg2PdRh,Cubic,225,106.207,58.013,147.23174280335817
mp-bxfoc,MnSiTc2,Cubic,225,252.159,102.98,271.92285871195423
mp-bxfod,MnSnRu2,Cubic,225,176.935,80.201,209.02131143556687
mp-bxfoe,Mg2PdAu,Cubic,225,88.039,26.291,71.73252851505468
mp-bxfog,Hf2CuOs,Cubic,225,175.345,56.988,154.25300157969755
mp-bxfoi,Mg2AgIr,Cubic,225,99.15,31.582,85.65184450144666
mp-bxfoj,Dy2AgOs,Cubic,225,101.086,41.391,109.26030725172566
mp-bxfok,Mg2AgAu,Cubic,225,73.054,33.934,88.15283498751461
mp-bxfom,MnAlRu2,Cubic,225,218.933,130.613,326.8421910778601
mp-bxfon,Dy2AgIr,Cubic,225,99.317,32.495,87.89863770479897
mp-bxfop,MnVRu2,Cubic,225,228.444,98.864,259.20049138735726
mp-bxfor,MnZnIr2,Cubic,225,226.37,78.633,211.41913536647644
mp-bxfot,MnZnRh2,Cubic,225,168.969,55.119,149.14011237736332
mp-bxfou,Mn2AlCr,Cubic,225,193.97,102.349,261.1200141613044
mp-bxfov,Mn2AlRe,Cubic,225,255.756,128.084,329.2830792090709
mp-bxfow,Mn2AlW,Cubic,225,237.182,126.511,322.239642432436
mp-bxfoy,MnNbRu2,Cubic,225,218.17,89.826,236.9575645676146
mp-bxfpd,LiSiPd2,Cubic,225,139.601,50.183,134.43977612764562
mp-bxfph,HfScOs2,Cubic,225,197.703,93.516,242.3383123713818
mp-bxfpi,CaYRh2,Cubic,225,89.209,34.602,91.92131913879872
mp-bxfpj,Be2IrPd,Cubic,225,214.003,111.931,285.9406957277767
mp-bxfpm,Dy2MgAl,Cubic,225,55.262,35.437,87.5887718898933
mp-bxfpn,Dy2MgIn,Cubic,225,52.775,27.596,70.49989027597744
mp-bxfpq,HfGaRu2,Cubic,225,197.202,78.797,208.60636653773923
mp-bxfpr,Mn2NbAl,Cubic,225,195.796,100.021,256.4025281077205
mp-bxfqa,HfMgIr2,Cubic,225,187.046,99.508,253.55963755475702
mp-bxfqb,Be2RuPt,Cubic,225,219.105,107.454,277.0684716953747
mp-bxfqd,HfTc2Sb,Cubic,225,201.069,95.257,246.79735476273652
mp-bxfqf,HfTaRe2,Cubic,225,244.954,109.351,285.56025989412626
mp-bxfqg,Mn2VSi,Cubic,225,242.884,131.761,334.7505773576178
mp-bxfqi,AcTlTe2,Cubic,225,41.684,19.533,50.6824507936508
mp-bxfqk,HfScRu2,Cubic,225,172.957,80.426,208.89835446865243
mp-bxfqm,Mn2PtRh,Cubic,225,174.551,77.815,203.24302304528248
mp-bxfqs,HfTaTc2,Cubic,225,222.224,99.455,259.6326604857941
mp-bxfqt,HfTc2Sn,Cubic,225,187.383,73.235,194.3815803435403
mp-bxfqx,MgInPd2,Cubic,225,109.21,28.094,77.62566388548426
mp-bxfqy,MgInIr2,Cubic,225,165.085,79.164,204.76185582301426
mp-bxfrc,TiZnIr2,Cubic,225,226.509,104.561,271.85222569533016
mp-bxfrd,HfMgPd2,Cubic,225,128.55,39.982,108.67879976129612
mp-bxfre,HfMgRh2,Cubic,225,154.665,68.281,178.56549569208454
mp-bxfrf,NaCa2Tl,Cubic,225,22.925,14.702,36.3380350276124
mp-bxfrv,Li2EuGe,Cubic,225,34.651,23.508,57.51705519335327
mp-bxfse,NaCd2Pt,Cubic,225,69.41,22.098,59.93365817442951
mp-bxfsh,TiZnPd2,Cubic,225,150.486,29.824,83.92761452952737
mp-bxfsj,NaAcTe2,Cubic,225,40.126,10.792,29.712267500190592
mp-bxfsk,NaCaAu2,Cubic,225,41.303,20.408,52.56625772431522
mp-bxfss,NaAcTl2,Cubic,225,31.125,12.636,33.38954919772476
mp-bxfst,HfMnRh2,Cubic,225,175.043,62.602,167.80189742246029
mp-bxfsu,MgGaNi2,Cubic,225,116.982,40.522,108.98234705263265
mp-bxfsv,TiZnNi2,Cubic,225,160.513,55.791,149.9946532801072
mp-bxfsw,HfNbTc2,Cubic,225,218.707,90.767,239.20909750993457
mp-bxfsy,NaHoTl2,Cubic,225,38.106,23.742,58.97735671447197
mp-bxfsz,NaHgPd2,Cubic,225,80.025,24.87,67.60646832361435
mp-bxfta,NaLaAu2,Cubic,225,55.109,16.143,44.12090859646223
mp-bxftc,NaInHg2,Cubic,225,25.727,9.66,25.756329153280134
mp-bxftj,NaMgPb2,Cubic,225,15.404,7.06,18.37306952995945
mp-bxftk,NaSmHg2,Cubic,225,43.362,14.613,39.411745443990625
mp-bxftl,NaSmTl2,Cubic,225,36.766,19.687,50.11586089164134
mp-bxftm,NaMgTl2,Cubic,225,24.965,13.0,33.23175379714432
mp-bxftn,NaSmAu2,Cubic,225,59.904,18.192,49.559190880426875
mp-bxfto,NaPrTl2,Cubic,225,35.668,17.268,44.6056651216686
mp-bxftp,NaNdAu2,Cubic,225,57.865,17.696,48.17692081697518
mp-bxftr,NaNdHg2,Cubic,225,42.221,14.872,39.92790764121949
mp-bxfts,LiSmTl2,Cubic,225,41.722,15.962,42.46994980443286
mp-bxftt,NaErTl2,Cubic,225,37.926,23.846,59.14266816834273
mp-bxftu,NaPrAu2,Cubic,225,56.68,17.065,46.52573581678737
mp-bxftv,NaPrHg2,Cubic,225,41.671,14.842,39.80071386793465
mp-bxftz,MgGaPd2,Cubic,225,120.303,31.091,85.87516621683673
mp-bxfub,MgGaRh2,Cubic,225,155.284,80.766,206.49705625500812
mp-bxfud,NaTl2Cd,Cubic,225,23.718,7.617,20.64135346764672
mp-bxfug,Hf2MoRh,Cubic,225,173.159,75.907,198.68827834977088
mp-bxfuh,Hf2OsRh,Cubic,225,201.65,55.152,151.63203141332704
mp-bxfuo,Hf2MnIr,Cubic,225,192.899,88.412,230.0842553345855
mp-bxfuv,NaTl2Bi,Cubic,225,27.25,8.941,24.17858718064637
mp-bxfux,Be2CuRu,Cubic,225,182.617,96.573,246.30188178745667
mp-bxfuy,PaAlTc2,Cubic,225,181.984,42.333,117.86014949896733
mp-bxfuz,PaAlRu2,Cubic,225,178.546,15.527,45.2687555958742
mp-bxfva,MgCdAu2,Cubic,225,86.378,21.743,60.179550785575174
mp-bxfvb,YbNdRh2,Cubic,225,87.977,27.617,75.00290614581475
mp-bxfvc,MgAlPd2,Cubic,225,124.171,40.012,108.39335911278103
mp-bxfvf,MgAlRh2,Cubic,225,155.745,85.611,217.06111060765565
mp-bxfvg,Dy2ZnGa,Cubic,225,65.862,39.796,99.37315115720654
mp-bxfvi,YbNdHg2,Cubic,225,49.525,23.048,59.858351153400186
mp-bxfvj,Dy2AlZn,Cubic,225,63.933,39.898,99.08280860779381
mp-bxfvk,MgGeIr2,Cubic,225,184.958,79.79,209.27638778944453
mp-bxfvm,MgGeRh2,Cubic,225,162.451,58.759,157.31045056874783
mp-bxfvn,HfBeRh2,Cubic,225,189.784,67.567,181.19764012692352
mp-bxfvp,HfScCo2,Cubic,225,138.178,69.939,179.5276109876092
mp-bxfvr,Ca2CdPb,Cubic,225,32.385,21.831,53.4766477989007
mp-bxfvw,YbTaRu2,Cubic,225,171.591,73.821,193.68728342286872
mp-bxfvy,HfCdRh2,Cubic,225,169.501,60.425,162.02205081310817
mp-bxfwd,Hf2FeOs,Cubic,225,201.248,95.692,247.8002455464117
mp-bxfwh,MgGaAg2,Cubic,225,68.65,15.528,43.31795844282502
mp-bxfwk,MgGaIr2,Cubic,225,187.256,96.083,246.14854158768475
mp-bxfwl,MgFeRh2,Cubic,225,154.144,73.504,190.2686238356819
mp-bxfwp,FeGeRu2,Cubic,225,223.605,101.794,265.1468289005176
mp-bxfwt,TmGaRh2,Cubic,225,147.294,55.923,148.9219699641426
mp-bxfxa,TmCdPt2,Cubic,225,123.512,20.588,58.51286421697466
mp-bxfxe,TmCdRh2,Cubic,225,127.101,52.847,139.24256345272374
mp-bxfxh,TmHfOs2,Cubic,225,182.794,86.548,224.25164350085836
mp-bxfxi,TmLuMg2,Cubic,225,45.134,23.143,59.29436726481442
mp-bxfxj,TmInRh2,Cubic,225,134.846,40.486,110.408374388797
mp-bxfxn,TmHfRu2,Cubic,225,161.823,73.726,192.01720773969726
mp-bxfxo,Dy2PdRu,Cubic,225,104.247,37.091,99.47526039070182
mp-bxfxr,Dy2IrRu,Cubic,225,125.9,53.425,140.4137257175993
mp-bxfxw,Th2BiTe,Cubic,225,80.336,50.256,124.75381147000658
mp-bxfyb,Be2NiIr,Cubic,225,231.437,114.747,295.41802064994107
mp-bxfyc,TmMgRh2,Cubic,225,116.23,52.742,137.43753348014107
mp-bxfyd,LiScTl2,Cubic,225,44.718,22.125,56.97804407501968
mp-bxfyg,TaZnRu2,Cubic,225,226.089,85.139,226.93157027715262
mp-bxfyh,Ti6Al16Ni7,Cubic,225,128.39,89.296,217.47063216331622
mp-bxfyj,Tm2ZnIr,Cubic,225,100.748,38.748,103.0348264358108
mp-bxfym,Lu2MgIn,Cubic,225,55.4,32.495,81.54209718412642
mp-bxfyn,TmNbOs2,Cubic,225,205.913,90.483,236.7684621644061
mp-bxfyu,TmNbRu2,Cubic,225,179.898,73.733,194.61121389505192
mp-bxfyv,TmSnRu2,Cubic,225,153.366,68.88,179.73271236232887
mp-bxfyw,TmTc2W,Cubic,225,202.895,78.138,207.745351553457
mp-bxfza,TbYbHg2,Cubic,225,52.205,26.236,67.41474435469317
mp-bxfzb,LuNbRu2,Cubic,225,182.535,79.038,207.20699340772975
mp-bxfzd,DyZnRh2,Cubic,225,129.806,45.355,121.8708617370444
mp-bxfzi,TmTaRu2,Cubic,225,188.12,80.951,212.3883198643754
mp-bxfzy,NbAlOs2,Cubic,225,260.723,129.33,332.93920268700236
mp-bxgaa,NbAlFe2,Cubic,225,209.082,126.798,316.42797359835765
mp-bxgab,Tm2AgPt,Cubic,225,96.269,34.96,93.55517443099514
mp-bxgac,Tm2AgRu,Cubic,225,96.69,38.929,102.96810959911731
mp-bxgae,Tm2CdOs,Cubic,225,101.396,37.595,100.37902288879201
mp-bxgar,Ho2InAg,Cubic,225,65.284,29.025,75.83618111234141
mp-bxgas,TmZnPd2,Cubic,225,108.889,15.796,45.20224315035493
mp-bxgat,TmZnRh2,Cubic,225,135.447,52.839,140.27604925519404
mp-bxgbc,Be2CuRh,Cubic,225,171.518,52.236,142.26561554014714
mp-bxgbo,Lu2PdRu,Cubic,225,115.779,46.14,122.18855877217727
mp-bxgbp,Lu2IrRu,Cubic,225,137.722,66.037,170.8101356335415
mp-bxgbt,Lu2CoRu,Cubic,225,118.848,56.419,146.1331107338914
mp-bxgbx,Lu2MgTc,Cubic,225,79.162,27.045,72.83995679145356
mp-bxgcg,Tm2ZnPt,Cubic,225,93.112,39.448,103.69949427825736
mp-bxgci,Tm2HgOs,Cubic,225,106.578,35.412,95.64309107803551
mp-bxgcy,Tm2MgAl,Cubic,225,58.554,38.344,94.42142362363673
mp-bxgdc,Tm2MgIr,Cubic,225,87.72,26.832,73.04797153024911
mp-bxgdd,Tm2MgOs,Cubic,225,89.938,29.624,80.07971536010793
mp-bxgdg,DyTaRu2,Cubic,225,181.822,68.958,183.65612880356238
mp-bxgdv,LuSnRu2,Cubic,225,156.439,71.105,185.24848332414297
mp-bxgew,Lu2ZnAu,Cubic,225,80.916,38.614,99.9438936885578
mp-bxgfq,YbNdAg2,Cubic,225,50.84,19.85,52.69226663572549
mp-bxgfw,Y2NiIr,Cubic,225,106.626,42.924,113.53666687614731
mp-bxgfx,Y2MgRu,Cubic,225,74.058,20.648,56.67668603339071
mp-bxgfy,LuZrRu2,Cubic,225,156.979,72.197,187.80027721888155
mp-bxggf,TiAlPd2,Cubic,225,158.18,28.706,81.20568413857238
mp-bxggg,TiAlOs2,Cubic,225,244.229,113.141,294.02055689927505
mp-bxggi,LiSc2Pt,Cubic,225,89.908,37.52,98.81440626993532
mp-bxggk,Lu2AgHg,Cubic,225,73.413,29.755,78.64042471019305
mp-bxggm,TiGaRu2,Cubic,225,212.674,87.343,230.47743775616414
mp-bxggn,Tm2MgTc,Cubic,225,77.305,27.589,73.96767990088786
mp-bxggx,Lu2AgRu,Cubic,225,98.781,39.928,105.56113941434141
mp-bxgha,MnV2Os,Cubic,225,265.263,115.151,301.7846372066217
mp-bxghd,VCo2Ge,Cubic,225,197.789,81.715,215.47153266566133
mp-bxghf,Pm2SnAu,Cubic,225,65.878,19.943,54.345103508183314
mp-bxghg,Pm2SiPd,Cubic,225,75.342,23.479,63.80871470311216
mp-bxghh,Ti2MnRu,Cubic,225,193.143,78.85,208.21555898031076
mp-bxghi,Ac2CuSn,Cubic,225,46.296,13.564,37.07154052423058
mp-bxghj,VGaTc2,Cubic,225,229.778,78.962,212.53992461759532
mp-bxghk,VSiTc2,Cubic,225,258.765,107.994,284.41562282240307
mp-bxghu,VTc2Ge,Cubic,225,243.003,96.105,254.73356388935346
mp-bxghw,V2CrRe,Cubic,225,253.319,112.266,293.44788853997204
mp-bxghx,V2CrOs,Cubic,225,261.007,118.265,308.23948856966604
mp-bxghy,VZnRu2,Cubic,225,225.829,79.087,212.45938018885133
mp-bxgic,V2CrFe,Cubic,225,231.816,102.939,269.0000776766155
mp-bxgig,V2CrRu,Cubic,225,241.192,103.536,271.7267966224647
mp-bxgih,V2CrTc,Cubic,225,238.066,95.291,252.22075266495284
mp-bxgij,V2ReOs,Cubic,225,289.662,136.853,354.6989360861927
mp-bxgil,V2TcOs,Cubic,225,275.44,129.105,334.9777646597064
mp-bxgin,V2TcRu,Cubic,225,254.239,109.902,288.1811778129974
mp-bxgio,YAgHg2,Cubic,225,69.569,17.156,47.55861684295347
mp-bxgip,YCdAg2,Cubic,225,71.324,15.786,44.104170370563814
mp-bxgiq,YAlAg2,Cubic,225,82.71,23.742,65.0059858315678
mp-bxgir,Lu2InAg,Cubic,225,69.509,32.13,83.52101758934917
mp-bxgis,VSiOs2,Cubic,225,286.547,125.357,328.2098547519894
mp-bxgit,VSiRu2,Cubic,225,250.046,119.671,309.6188862083515
mp-bxgiy,YMgCd2,Cubic,225,53.873,26.509,68.32089966937404
mp-bxgjb,YMgZn2,Cubic,225,59.874,36.417,90.83491000236067
mp-bxgjd,YZnRh2,Cubic,225,126.817,44.737,120.08972304251294
mp-bxgjf,YTaRu2,Cubic,225,179.127,69.742,185.19159561736254
mp-bxgjg,YCdPd2,Cubic,225,97.382,27.819,76.20092423233791
mp-bxgji,YCdAu2,Cubic,225,87.395,21.097,58.57749816437331
mp-bxgjj,TiMnRh2,Cubic,225,183.807,75.228,198.59107245682992
mp-bxgjk,YCdPt2,Cubic,225,116.26,20.954,59.29941081967036
mp-bxgjl,YCdHg2,Cubic,225,76.015,19.287,53.34898737324729
mp-bxgjq,YThRu2,Cubic,225,124.42,30.249,83.94416288112532
mp-bxgjr,TiMn2Al,Cubic,225,159.093,83.1,212.33068102123738
mp-bxgjt,Ti2ReOs,Cubic,225,240.23,110.684,287.84464739094557
mp-bxgjw,YbZrRh2,Cubic,225,127.688,30.229,84.05398825530555
mp-bxgjx,TiMnCo2,Cubic,225,168.613,77.429,201.45083185259605
mp-bxgjy,Ti2RePd,Cubic,225,193.113,72.804,194.02890112751348
mp-bxgkf,Pm2SiAu,Cubic,225,74.428,22.913,62.34161616916534
mp-bxgkg,Yb2AgBi,Cubic,225,38.939,24.271,60.287169858528
mp-bxgkh,Pm2CuSi,Cubic,225,68.269,27.721,73.24866055270763
mp-bxgko,Mn2VGe,Cubic,225,224.329,110.157,283.98696392617444
mp-bxgku,Y2AlZn,Cubic,225,62.953,40.862,100.78081400481453
mp-bxgkv,Y2AgRu,Cubic,225,90.313,35.774,94.80431334178857
mp-bxgkx,LuZnPd2,Cubic,225,111.102,18.066,51.4113776510365
mp-bxgla,LuZnRh2,Cubic,225,138.683,56.941,150.25843744476626
mp-bxgld,Ti2MnIr,Cubic,225,212.034,97.188,252.92100468845888
mp-bxgll,Li2CdAu,Cubic,225,44.869,12.122,33.36162695854263
mp-bxglm,LiNd2Ga,Cubic,225,43.608,24.558,62.02988361586284
mp-bxglt,VGeRu2,Cubic,225,236.881,105.622,275.86458421958554
mp-bxglu,VGaRu2,Cubic,225,236.904,112.122,290.53168997878066
mp-bxglv,Y2CuRh,Cubic,225,88.993,33.634,89.61260843010781
mp-bxglw,Y2CuRu,Cubic,225,92.142,40.684,106.3931952697802
mp-bxglz,Ti2NiMo,Cubic,225,170.681,76.912,200.6040421560221
mp-bxgma,Y2ZnRu,Cubic,225,87.008,30.47,81.85487124949397
mp-bxgmc,Y2CuIr,Cubic,225,99.876,37.98,101.1220537428023
mp-bxgmf,NdPbAu2,Cubic,225,75.68,19.233,53.19292395025034
mp-bxgmi,Y2IrPd,Cubic,225,109.327,42.364,112.55386532017444
mp-bxgmk,Y2MgAl,Cubic,225,54.789,36.348,89.29693918242282
mp-bxgml,Y2IrRh,Cubic,225,119.564,33.326,91.47872999709196
mp-bxgmp,LuGaPd2,Cubic,225,115.558,18.845,53.62023476207804
mp-bxgmr,LuGaRh2,Cubic,225,149.694,60.379,159.66946681689078
mp-bxgmx,GaSiRu2,Cubic,225,228.828,88.656,235.54812874061463
mp-bxgnw,TiGeRu2,Cubic,225,228.106,116.587,298.8466147645476
mp-bxgnx,Y2NiRu,Cubic,225,104.846,40.076,106.64067031758475
mp-bxgoe,Yb2CdPb,Cubic,225,33.75,22.062,54.344528513040096
mp-bxgof,Ti2TcRh,Cubic,225,203.459,95.495,247.7274276993563
mp-bxgog,Ti2TcRu,Cubic,225,208.121,94.372,245.94204415813897
mp-bxgoi,TiMn2Si,Cubic,225,207.779,105.768,271.27412848355175
mp-bxgoj,TiNbRe2,Cubic,225,250.96,111.453,291.24446702833285
mp-bxgom,TiMn2W,Cubic,225,243.092,113.185,293.935638777344
mp-bxgop,Y2ZnIr,Cubic,225,93.884,35.758,95.1889878957815
mp-bxgoq,Yb2AgPt,Cubic,225,56.533,22.834,60.373588199529195
mp-bxgor,YbMgCd2,Cubic,225,38.38,17.587,45.76990017102774
mp-bxgot,YbLuRh2,Cubic,225,100.492,38.627,102.71988296486653
mp-bxgou,TiRe2W,Cubic,225,287.241,142.198,366.17010846670206
mp-bxgov,TiReTc2,Cubic,225,271.275,125.232,325.59343809800686
mp-bxgow,Li2TlAg,Cubic,225,32.933,17.026,43.56965527304122
mp-bxgoz,TiSiTc2,Cubic,225,228.921,85.424,227.92164014157194
mp-bxgpb,Y2ZnIn,Cubic,225,59.596,33.082,83.7494399773446
mp-bxgpi,TiMn2V,Cubic,225,195.509,76.292,202.53184300993183
mp-bxgpk,TiSiOs2,Cubic,225,283.881,134.466,348.39057641092415
mp-bxgpl,TiSiRu2,Cubic,225,244.997,129.794,330.94036733060824
mp-bxgqa,HoGaRh2,Cubic,225,143.634,49.846,134.03326332298835
mp-bxgqm,LiSm2Ru,Cubic,225,66.47,25.565,67.9797753083676
mp-bxgqq,Ti2MnNi,Cubic,225,173.551,66.646,177.24927083819313
mp-bxgqr,Li2TlBi,Cubic,225,30.009,22.827,54.62933513211762
mp-bxgqv,Ti2ReIr,Cubic,225,234.973,118.676,304.72611141641215
mp-bxgrg,Ti2ReNi,Cubic,225,194.083,80.092,211.22119984116944
mp-bxgri,TiZnAu2,Cubic,225,133.602,28.603,80.0932492192758
mp-bxgrj,Li2HgPd,Cubic,225,52.245,13.98,38.505496880766195
mp-bxgrn,Li2YbGe,Cubic,225,38.24,30.808,72.85801550217141
mp-bxgrp,Li2InSn,Cubic,225,35.36,14.569,38.42915034521629
mp-bxgrq,LiPrHg2,Cubic,225,47.688,9.986,28.00334081672656
mp-bxgrr,YbCdAg2,Cubic,225,53.798,15.429,42.24814689265537
mp-bxgru,YbCdHg2,Cubic,225,41.342,11.442,31.42673159712995
mp-bxgrv,Ga2IrRh,Cubic,225,198.415,48.354,134.16340017619666
mp-bxgsf,YbErPd2,Cubic,225,79.277,27.507,73.96623156502272
mp-bxgsi,YbGaPd2,Cubic,225,94.214,9.818,28.46521735621965
mp-bxgsj,YbGaRh2,Cubic,225,130.602,55.665,146.2209684426477
mp-bxgsl,YbHfRh2,Cubic,225,134.565,38.75,106.06864977567834
mp-bxgsu,Ti2MnOs,Cubic,225,210.074,88.015,231.68810293816668
mp-bxgtf,Ga2CoRu,Cubic,225,188.326,88.172,228.8076562014851
mp-bxgtg,TiMn2Ga,Cubic,225,160.207,76.368,197.69186390395495
mp-bxgtp,YbInAg2,Cubic,225,55.757,21.769,57.78653828290308
mp-bxgtq,YbInHg2,Cubic,225,40.699,8.103,22.796128824884793
mp-bxgtr,CrSiRu2,Cubic,225,253.029,138.001,350.3160172257348
mp-bxgts,BeSiNi2,Cubic,225,196.801,75.961,201.9058755409956
mp-bxgtt,LiSc2Rh,Cubic,225,85.14,30.034,80.62193151961436
mp-bxgtv,LiSc2Ru,Cubic,225,87.654,34.245,90.89759349544256
mp-bxgtw,LuCdRh2,Cubic,225,128.593,53.675,141.3573740937618
mp-bxgtx,LuCo2Sn,Cubic,225,127.341,69.17,175.6977451556208
mp-bxgtz,Yb2AsAu,Cubic,225,55.734,36.046,88.95974315122413
mp-bxgua,Yb2BiAu,Cubic,225,45.488,26.674,66.93794338535473
mp-bxgud,Ti2MoPt,Cubic,225,194.966,87.695,228.78306840838363
mp-bxguf,TaZnCo2,Cubic,225,201.21,81.324,215.00541402780334
mp-bxgug,LuGaCu2,Cubic,225,94.234,31.195,84.28454770195319
mp-bxguh,Ti2MoIr,Cubic,225,208.29,83.939,221.9961777996611
mp-bxguj,TiTc2Sb,Cubic,225,210.128,97.116,252.45514451134017
mp-bxguk,TiTc2W,Cubic,225,257.893,119.069,309.56502232768935
mp-bxgul,LaYbAg2,Cubic,225,46.367,16.211,43.55683355439373
mp-bxgum,LiSmHg2,Cubic,225,50.518,10.941,30.61298465798948
mp-bxgun,YbMgTl2,Cubic,225,35.189,17.094,44.135355932203396
mp-bxguo,YbMgHg2,Cubic,225,42.899,18.79,49.18840229986372
mp-bxgup,YbPd2Au,Cubic,225,104.932,24.769,68.88680038284275
mp-bxgvo,Ti2TcIr,Cubic,225,223.944,110.73,285.18618598909734
mp-bxgvp,YbPaPt2,Cubic,225,118.801,28.281,78.60555606419815
mp-bxgvq,Ti2OsRu,Cubic,225,231.602,119.766,306.4706449374641
mp-bxgvt,Yb2CuIr,Cubic,225,69.855,33.64,86.96079356921116
mp-bxgvu,LuHfRu2,Cubic,225,163.884,74.76,194.67756784813886
mp-bxgvv,Lu2CuPt,Cubic,225,101.128,42.41,111.62584174392848