material_id,formula_pretty,symmetry.crystal_system,symmetry.number,bulk_modulus.vrh,shear_modulus.vrh,youngs_modulus_vrh
mp-cfwfo,SrIrO3,Cubic,221,169.881,38.702,107.91127877157629
mp-cfwfq,BaRhO3,Cubic,221,134.066,54.001,142.82644765551876
mp-cfwfr,HgRuO3,Cubic,221,178.37,39.007,109.07028934868676
mp-cfwgl,ZrHgO3,Cubic,221,146.764,42.062,115.18238951475472
mp-cfwgm,CaIrO3,Cubic,221,172.529,26.92,76.76728879518538
mp-cfwgn,CaHfO3,Cubic,221,166.721,93.423,236.15817058859204
mp-cfwgo,SiHgO3,Cubic,221,221.487,68.309,185.82365455327047
mp-cfwgq,ZnSiO3,Cubic,221,235.713,107.427,279.7777762133455
mp-cfwgr,HgRhO3,Cubic,221,148.652,39.585,109.07318801089919
mp-cfwgt,CdSiO3,Cubic,221,228.217,103.61,269.9741206656171
mp-cfwgv,CdSnO3,Cubic,221,152.367,64.191,168.85989210078034
mp-cfwgw,CdOsO3,Cubic,221,192.236,22.11,63.88091480216025
mp-cfwgx,ZrZnO3,Cubic,221,149.835,45.061,122.86617845747585
mp-cfwgy,CaGeO3,Cubic,221,172.617,115.281,282.8717287911525
mp-cfwho,CaOsO3,Cubic,221,190.541,38.385,107.90882507278592
mp-cfwhq,ZnSnO3,Cubic,221,151.079,53.821,144.32472366277625
mp-cfwhr,CdGeO3,Cubic,221,182.736,86.226,223.52104241575952
mp-cfwio,ZnIrO3,Cubic,221,201.293,45.961,128.13099864120397
mp-cfwiq,MgSiO3,Cubic,221,230.404,135.037,338.9021766223015
mp-cfwis,ZnGeO3,Cubic,221,190.693,76.932,203.4380694379602
mp-cfwlj,SrGeO3,Cubic,221,158.897,115.034,278.0126198521272
mp-cfwlk,MgZrO3,Cubic,221,157.164,66.663,175.2157158959779
mp-cfxco,HfCdO3,Cubic,221,167.615,69.422,183.0011459161545
mp-cfxcp,HgGeO3,Cubic,221,172.111,64.611,172.27542480686606
mp-pbj,KCdF3,Cubic,221,55.986,21.121,56.28505944076285
mp-cfxgs,CdNi3N,Cubic,221,182.751,69.531,185.11605679169418
mp-cfxgt,CsBeF3,Cubic,221,80.268,25.875,70.09329755998786
mp-cfxhe,GePbO3,Cubic,221,157.328,96.824,241.02708901421923
mp-cfxhq,HfBRh3,Cubic,221,223.425,101.826,265.1910390609518
mp-cfxjm,LiCaF3,Cubic,221,79.537,48.995,121.94543171908792
mp-cfxjn,Lu3AlN,Cubic,221,99.463,75.583,180.9210512043682
mp-cfxjp,MgNiH3,Cubic,221,109.663,26.812,74.37460604101732
mp-cfxjr,ScBPd3,Cubic,221,153.391,20.837,59.80306938109395
mp-cfxjs,Ni3SnN,Cubic,221,174.329,44.265,122.43246152503649
mp-pbt,Mg3ZnC,Cubic,221,62.165,37.249,93.14331005524171
mp-cfywb,YPd3C,Cubic,221,153.404,20.546,59.003796621169066
mp-cfywh,ScPd3C,Cubic,221,166.014,27.529,78.26115720616245
mp-cfywi,SnPd3C,Cubic,221,153.925,31.093,87.39441437666879
mp-cfywl,TiSnO3,Cubic,221,175.285,85.64,220.93830137613554
mp-cfywn,Tm3AlN,Cubic,221,96.02,72.828,174.39344350601846
mp-cfywp,YBPd3,Cubic,221,142.867,20.681,59.18708482200489
mp-cfywt,YbNiH3,Cubic,221,99.841,61.016,152.06977914733218
mp-cgafd,BaCa3O4,Cubic,221,90.795,56.437,140.25149392376423
mp-cgfnd,KCuCl3,Cubic,221,38.496,17.3,45.13831972768624
mp-peg,BaLiF3,Cubic,221,69.602,42.339,105.60398057695753
mp-pfa,ScCo3C,Cubic,221,208.929,96.179,250.15179222674374
mp-pfb,ZnCo3C,Cubic,221,227.96,113.893,292.89965255780777
mp-pfe,Er3GaC,Cubic,221,46.623,21.304,55.46405122446067
mp-pff,Er3InC,Cubic,221,40.114,12.572,34.148538694193235
mp-pfj,Ho3GaC,Cubic,221,45.194,20.445,53.29796746716916
mp-chfdz,RbOsO3,Cubic,221,197.673,104.983,267.5790915083338
mp-prs,La3AlC,Cubic,221,58.829,34.474,86.52138790582146
mp-prt,Y3GaC,Cubic,221,78.798,64.388,151.8136411620376
mp-pru,Sm3GaC,Cubic,221,67.541,48.714,117.81683741749124
mp-pry,Sm3TlC,Cubic,221,66.659,49.981,119.96075865145343
mp-psa,Y3SnC,Cubic,221,81.995,62.479,149.47186850005187
mp-psd,La3PbC,Cubic,221,60.77,39.774,97.95209839520182
mp-puo,Sm3AlN,Cubic,221,34.496,10.871,29.512798677847833
mp-pup,Ti3AlN,Cubic,221,162.649,40.864,113.11867306844977
mp-pvn,LuRh3C,Cubic,221,205.343,85.576,225.41443278197843
mp-pvo,MgNi3C,Cubic,221,168.29,55.797,150.73242079523138
mp-pvu,ZrRu3C,Cubic,221,258.82,157.252,392.30476181092246
mp-pvw,PrRh3C,Cubic,221,183.945,66.421,177.85560933496802
mp-pwa,ScRh3C,Cubic,221,213.993,88.558,233.46815951279675
mp-pwc,TmRh3C,Cubic,221,203.932,83.513,220.44696393114432
mp-pwe,YbRh3C,Cubic,221,186.655,80.247,210.56545966804745
mp-pwu,ThTaN3,Cubic,221,241.796,135.904,343.3787754396883
mp-rge,Yb3PbO,Cubic,221,58.432,50.196,117.06612229258688
mp-rjh,Lu3InN,Cubic,221,95.187,72.27,173.02156719233383
mp-rkx,RbUO3,Cubic,221,132.148,69.574,177.56091946663003
mp-rms,Ca3GeN,Cubic,221,55.627,36.988,90.83177571872135
mp-rmu,Ca3PN,Cubic,221,63.211,53.243,124.71339060672938
mp-srv,SrTcO3,Cubic,221,181.627,54.765,149.29012099638786
mp-svl,NbAgO3,Cubic,221,187.023,77.819,205.02104521136727
mp-uwh,ZnAgF3,Cubic,221,81.455,25.207,68.54987040568011
mp-dcjud,YSnO3,Cubic,221,135.269,40.831,111.29486709818691
mp-dckzv,AlBiO3,Cubic,221,105.509,48.521,126.21523662915563
mp-dcsho,AlAgO3,Cubic,221,134.977,38.01,104.24476833257702
mp-dctaf,YAgO3,Cubic,221,152.504,34.036,95.03778938374279
mp-dcwvn,AlSbO3,Cubic,221,127.135,73.559,184.99773868921497
mp-ddbvu,YBiO3,Cubic,221,113.052,19.427,55.12350233000449
mp-vcg,NdAlO3,Cubic,221,197.949,138.548,337.0161490288711
mp-dddpu,AlSnO3,Cubic,221,152.634,53.245,143.0957747379912
mp-ddmwh,YCuO3,Cubic,221,182.599,81.28,212.33461162941896
mp-ddtgg,YTiO3,Cubic,221,188.993,58.897,160.06379297017298
mp-dfzap,TiAlO3,Cubic,221,180.192,63.163,169.66471548798404
mp-dhpig,AlCuO3,Cubic,221,160.131,47.974,130.85435189177218
mp-xlw,DyRh3C,Cubic,221,199.853,79.683,211.00576729795867
mp-ycl,NdRh3C,Cubic,221,186.801,67.992,181.90590683885137
mp-yco,ZnNi3C,Cubic,221,194.302,54.987,150.7412005869323
mp-ycv,Sc3SnC,Cubic,221,101.411,81.286,192.44097155782208
mp-egtjv,CsAgBr3,Cubic,221,25.511,10.716,28.199553966234568
mp-bdei,Sm3InN,Cubic,221,79.926,56.436,137.05069181065042
mp-bdfp,Pr3InC,Cubic,221,32.389,8.891,24.43696270908371
mp-eiktf,RbAgCl3,Cubic,221,31.598,12.344,32.76532516940768
mp-bdgr,Yb3InC,Cubic,221,38.199,9.67,26.752548705609698
mp-bdif,Y3InC,Cubic,221,78.064,63.498,149.86116714703212
mp-bdiy,Tb3TlC,Cubic,221,40.323,11.741,32.10678236003316
mp-bdjh,TiPbO3,Cubic,221,170.269,90.612,230.88018777590995
mp-bdyb,Sm3InC,Cubic,221,34.955,9.831,26.96505061205273
mp-beeb,Nd3InC,Cubic,221,63.104,44.171,107.4438012874599
mp-begk,SnPt3C,Cubic,221,177.192,4.648,13.823133138389926
mp-bely,La3InB,Cubic,221,44.762,26.55,66.50177758710736
mp-bepj,Co3SnC,Cubic,221,198.668,86.71,227.0914621935393
mp-bepo,Pr3AlN,Cubic,221,31.769,9.57,26.090219685917795
mp-bewi,Mn3SnC,Cubic,221,215.893,120.102,303.94426245765396
mp-beys,Dy3GaC,Cubic,221,44.205,19.481,50.957411404639174
mp-bfaw,Ho3TlC,Cubic,221,41.581,12.506,34.09939507027373
mp-bfbi,Pr3InN,Cubic,221,72.128,49.169,120.19504463515757
mp-bfbr,La3InN,Cubic,221,65.083,41.796,103.27946850597988
mp-bfcj,Y3PbC,Cubic,221,77.789,58.485,140.29510500185023
mp-bfco,Nd3InN,Cubic,221,75.749,52.058,127.06565574551117
mp-bfcu,Er3TlC,Cubic,221,42.482,12.995,35.37771954058999
mp-bfcx,Pd3PbC,Cubic,221,141.216,29.434,82.5655525843004
mp-bfdb,Sc3PbC,Cubic,221,94.605,76.167,180.15348354917748
mp-bfgq,Ca3PbN,Cubic,221,18.661,8.672,22.526544397185063
mp-bfgx,Pr3InO,Cubic,221,71.496,41.666,104.66583002412611
mp-bfjq,Yb3GaC,Cubic,221,37.775,6.307,17.923484728166375
mp-bgik,Fe3SnC,Cubic,221,293.392,143.27,369.64182434637496
mp-bgiw,VRu3C,Cubic,221,274.66,160.459,402.9147773097165
mp-bgks,Nd3AlN,Cubic,221,32.77,10.085,27.440094561557267
mp-bgrn,TaRu3C,Cubic,221,291.431,149.144,382.2283790560631
mp-bgsu,YRh3C,Cubic,221,196.814,79.702,210.66849043190714
mp-bhbl,TiCdO3,Cubic,221,126.081,20.728,58.95331418072993
mp-bhbr,NbRu3C,Cubic,221,281.254,148.287,378.3651886973325
mp-bhdi,ThRu3C,Cubic,221,224.114,107.105,277.1626162266325
mp-bhhx,Dy3TlC,Cubic,221,40.847,12.029,32.861240001486216
mp-bhit,HfPbO3,Cubic,221,166.252,87.185,222.63696443839908
mp-bhjo,Tm3TlC,Cubic,221,43.149,13.276,36.123225520763995
mp-bhsr,AlFe3C,Cubic,221,232.51,88.775,236.25651273996738
mp-bhzv,GaBiO3,Cubic,221,173.106,89.283,228.55500891717236
mp-bicb,CsPbCl3,Cubic,221,21.823,9.296,24.4205105597539
mp-bids,AlBiO3,Cubic,221,190.998,117.305,292.1128141718299
mp-bjcr,NaBeH3,Cubic,221,59.369,49.113,115.49206616054926
mp-bjcz,KMgH3,Cubic,221,34.622,31.061,71.73171772884598
mp-bjgc,BaLiH3,Cubic,221,37.474,38.849,86.61572167831241
mp-fkfqe,KAgCl3,Cubic,221,31.855,11.58,30.985375892482153
mp-fussj,CsInBr3,Cubic,221,21.762,8.403,22.334334486829786
mp-bogs,CsSnBr3,Cubic,221,19.249,8.647,22.562504548603787
mp-boju,Ca3AsBr3,Cubic,221,34.272,22.458,55.295793093538954
mp-bpac,CsHgBr3,Cubic,221,22.568,8.363,22.33065134683897
mp-bpnp,Ca3AsCl3,Cubic,221,37.483,25.136,61.631385630701025
mp-bpri,K3BrO,Cubic,221,19.399,12.792,31.46076254067532
mp-bprn,K3IO,Cubic,221,18.587,12.762,31.155460881747732
mp-bqht,Li3BrO,Cubic,221,48.727,35.622,85.92695800399332
mp-bqic,Na3ClO,Cubic,221,32.992,22.436,54.87000138371824
mp-brgr,Ca3SnO,Cubic,221,54.846,45.672,107.24674662480378
mp-brgt,Ba3SnO,Cubic,221,36.771,25.902,62.929794648166514
mp-eis,Mn3ZnC,Cubic,221,192.524,65.249,175.87786690851726
mp-brko,Ca3PCl3,Cubic,221,40.064,26.861,65.86354536119632
mp-brzh,YBRh3,Cubic,221,181.021,85.796,222.27224138320355
mp-eli,BaTiO3,Cubic,221,166.907,106.373,263.2040257340708
mp-elk,Cr3GaN,Cubic,221,295.563,110.737,295.32801368622836
mp-eme,BaNbO3,Cubic,221,167.842,89.357,227.66839046827116
mp-bsrv,La3GaBr3,Cubic,221,41.385,22.985,58.18341732363736
mp-emg,TbBPd3,Cubic,221,142.81,10.576,30.963647512790256
mp-eou,LaBRh3,Cubic,221,165.301,62.911,167.48553346730753
mp-epl,LuBPd3,Cubic,221,148.81,25.344,71.94751249538974
mp-btyl,Sc3InN,Cubic,221,96.711,74.295,177.44600772992197
mp-eqq,NaNbO3,Cubic,221,176.561,100.088,252.5437600524635
mp-err,BaSnO3,Cubic,221,133.913,89.091,218.76003452722938
mp-esl,DyBRh3,Cubic,221,183.388,86.089,223.3218637680294
mp-evv,Ti3AlC,Cubic,221,153.159,103.192,252.80058391700982
mp-exv,SrZrO3,Cubic,221,152.318,88.002,221.3730975051197
mp-bxjh,CeGaO3,Cubic,221,182.932,27.336,78.11692870383871
mp-fcq,KMgF3,Cubic,221,74.789,43.567,109.44856295580254
mp-fid,NdBRh3,Cubic,221,174.728,74.997,196.82980993055526
mp-fja,KTaO3,Cubic,221,188.716,122.495,302.11720409559086
mp-fko,RbCaF3,Cubic,221,48.191,26.403,66.97713572080293
mp-flu,YbBRh3,Cubic,221,161.964,87.207,221.81080569325718
mp-fmb,HoBPd3,Cubic,221,145.69,18.834,54.16782730574858
mp-fms,HoBRh3,Cubic,221,184.167,87.48,226.5666675104417
mp-fmz,LuBRh3,Cubic,221,188.744,90.644,234.40740752288104
mp-frm,BaZrO3,Cubic,221,148.845,91.419,227.65022566055836
mp-gax,Sc3AlC,Cubic,221,100.358,84.205,197.4045004010081
mp-gcs,KUO3,Cubic,221,134.466,67.688,173.88674567276465
mp-gek,NaTaO3,Cubic,221,201.078,111.744,282.8385492812366
mp-ggs,Sc3TlC,Cubic,221,97.309,81.849,191.77742570148965
mp-gnl,Rb3AuO,Cubic,221,15.595,9.399,23.479934589918837
mp-gpc,Y3AlC,Cubic,221,79.684,63.961,151.37969300327046
mp-grh,La3AlN,Cubic,221,66.117,43.537,107.10255349996693
mp-gtb,SrHfO3,Cubic,221,163.199,99.605,248.30012042559264
mp-gtn,Ti3TlC,Cubic,221,148.372,83.571,211.08211041315565
mp-gur,Mn3AlC,Cubic,221,235.077,130.58,330.5378751177001
mp-hik,KCaF3,Cubic,221,48.658,25.296,64.67959894902786
mp-hjq,SmBRh3,Cubic,221,175.916,78.41,204.80165573992255
mp-bcsqd,BaTiO3,Cubic,221,54.646,3.148,9.266069401386115
mp-bdazw,CeBRh3,Cubic,221,190.777,56.573,154.45194336337505
mp-hsa,PrBRh3,Cubic,221,169.867,73.418,192.5180116840103
mp-htd,SrTiO3,Cubic,221,170.929,108.497,268.64936714449436
mp-hwa,LaAlO3,Cubic,221,194.911,129.69,318.4416911409627
mp-hwt,CeAlO3,Cubic,221,191.964,48.718,134.7543577080098
mp-beuvt,LiEuH3,Cubic,221,47.287,49.922,110.78121901315549
mp-bevyd,TbRh3C,Cubic,221,196.967,77.674,205.949867736604
mp-bevym,CaZrO3,Cubic,221,155.28,81.711,208.55181840595668
mp-ibe,TmBRh3,Cubic,221,186.37,89.666,231.82033826775339
mp-bfbzs,TlIO3,Cubic,221,111.81,58.323,149.05245590509787
mp-bfddl,SrSnO3,Cubic,221,142.602,88.097,219.15994973086026
mp-bfhqe,ScBiO3,Cubic,221,148.262,71.889,185.65957761068367
mp-bfokv,RbCuF3,Cubic,221,69.734,31.504,82.14211288459781
mp-bfozd,TlCuF3,Cubic,221,70.161,25.725,68.77000577880513
mp-igc,KCuF3,Cubic,221,68.887,30.35,79.39076266502398
mp-bftsv,Ag3SI,Cubic,221,44.61,6.537,18.69770052790186
mp-bfwzv,NaMgF3,Cubic,221,71.171,42.484,106.30069444563803
mp-bfyty,BaPbO3,Cubic,221,61.735,17.699,48.46543136162915
mp-bfzhj,CsHgF3,Cubic,221,49.422,16.764,45.183261661516084
mp-ijv,BaCeO3,Cubic,221,111.403,52.386,135.86212450238622
mp-bghut,Fe3NiN,Cubic,221,203.967,86.951,228.39773164132032
mp-bgigj,CsYbBr3,Cubic,221,21.39,11.983,30.292271217154937
mp-bgjbc,CsCdCl3,Cubic,221,29.552,13.901,36.05040287839933
mp-bglah,ScBRh3,Cubic,221,195.322,96.283,248.08492666753634
mp-bglfk,Sr3BiN,Cubic,221,43.271,36.36,85.21241140257443
mp-bglnr,CsGeBr3,Cubic,221,22.345,12.431,31.459193302796162
mp-bglqg,MnTlCl3,Cubic,221,34.353,15.324,40.02118841387699
mp-bgmbv,CsHgCl3,Cubic,221,27.743,10.092,27.001866718102033
mp-bgmks,Tb3AlC,Cubic,221,76.355,58.94,140.63392406381834
mp-bgneg,Nd3AlC,Cubic,221,63.965,43.503,106.39013311497975
mp-bgnje,RbGeI3,Cubic,221,18.094,10.168,25.69151478665632
mp-bgrmd,Tm3AlC,Cubic,221,39.315,16.967,44.49951409066651
mp-bgzgi,Fe3PtN,Cubic,221,206.727,98.815,255.70317017758092
mp-bhais,Fe3RhN,Cubic,221,180.818,82.097,213.9161383361807
mp-iqd,CaTiO3,Cubic,221,176.478,103.379,259.4717119559807
mp-isc,KZnF3,Cubic,221,71.15,33.286,86.38662416509955
mp-isr,CaSiO3,Cubic,221,216.044,150.17,365.76376774704306
mp-bidsj,CsPbBr3,Cubic,221,18.482,7.962,20.886688682816047
mp-biyhx,CsSnI3,Cubic,221,15.373,7.428,19.192780099725475
mp-bjseh,Mn3GaN,Cubic,221,227.986,132.732,333.4794594864636
mp-bkacu,BaLiH3,Cubic,221,16.673000000000002,6.439,17.11390809097028
mp-bkfgb,Nd3GaN,Cubic,221,38.83,10.717,29.44232620846337
mp-bkgox,Ca3SnN,Cubic,221,19.651,9.48,24.50021656218491
mp-bkldq,Ca3Al2O6,Cubic,221,64.785,42.746,105.11847900261913
mp-bkras,EuH3Pd,Cubic,221,86.912,38.11,99.75019535145192
mp-khj,RbCdF3,Cubic,221,55.222,22.838,60.21325979289565
mp-khk,RbYbF3,Cubic,221,56.432,30.807,78.19225906658072
mp-kjm,SrNbO3,Cubic,221,173.24,79.765,207.45539488060584
mp-kly,Mn3PtN,Cubic,221,179.569,75.462,198.5703005231459
mp-kng,CsCaF3,Cubic,221,47.44,26.842,67.74843239025313
mp-kog,ScRu3C,Cubic,221,236.198,139.147,348.922828970169
mp-kot,BaPuO3,Cubic,221,118.683,56.229,145.68043325862646
mp-kpj,La3TlC,Cubic,221,54.494,36.156,88.82359859345415
mp-krv,Ca3AsN,Cubic,221,60.583,51.711,120.77129965304549
mp-lbu,RbHgF3,Cubic,221,50.69,14.872,40.64139114183369
mp-lbv,KHgF3,Cubic,221,50.671,12.972,35.85621667424311
mp-bqxbp,EuHfO3,Cubic,221,165.391,95.032,239.2688451687655
mp-bqykc,BaTaO3,Cubic,221,177.458,94.012,239.70624098239747
mp-bqyku,PrTiO3,Cubic,221,187.179,68.846,183.98137149320337
mp-bqysi,Rb3ClO,Cubic,221,17.011,9.97,25.021671557136536
mp-bqyue,Ba3SiO,Cubic,221,39.278,26.756,65.41461727643681
mp-brdwd,YbAlO3,Cubic,221,170.465,76.264,199.10030279464792
mp-lgm,Mg3NF3,Cubic,221,108.207,81.341,195.12907681753464
mp-brwpz,EuZrO3,Cubic,221,154.842,83.545,212.42954655509965
mp-lme,Sr3SbN,Cubic,221,45.977,38.116,89.59047293052424
mp-luf,Sr3SnO,Cubic,221,44.124,35.774,84.4886454866604
mp-lve,CaSnO3,Cubic,221,149.034,83.207,210.45475061143597
mp-lwm,LaTiO3,Cubic,221,183.62,66.054,176.94446765675605
mp-lxd,BaThO3,Cubic,221,110.875,50.624,131.81097406646853
mp-lyo,TaSnO3,Cubic,221,189.595,22.423,64.71765971536244
mp-mec,PrAlO3,Cubic,221,197.512,136.42,332.66930152162814
mp-mjw,Pr3GaC,Cubic,221,36.668,13.823,36.839751233575875
mp-mjy,Ni3GeC,Cubic,221,187.015,41.228,115.21733463064092
mp-mkz,CsSrF3,Cubic,221,39.37,20.108,51.54804468303694
mp-mla,CsYbF3,Cubic,221,57.116,32.481,81.91505214665234
mp-mlb,CsCdF3,Cubic,221,53.871,24.043,62.788081597147404
mp-mld,CsMgF3,Cubic,221,62.499,36.041,90.69034406230706
mp-mrd,BaPaO3,Cubic,221,109.369,41.577,110.70296311714871
mp-bxayz,TaTlO3,Cubic,221,187.786,104.711,264.8967975074431
mp-bxcjw,PaTlO3,Cubic,221,133.398,57.351,150.4870084516277
mp-bxcli,LiTcO3,Cubic,221,194.213,79.846,210.6676842222843
mp-bxfac,AcCuO3,Cubic,221,163.571,81.723,210.16780128608266
mp-bxftw,NaPaO3,Cubic,221,132.432,57.938,151.6925513999394
mp-bxfwf,EuGeO3,Cubic,221,167.47,101.809,253.96351169029776
mp-bxfxq,YbTiO3,Cubic,221,188.205,111.444,279.2195092144325
mp-bxgbq,UTlO3,Cubic,221,132.86,59.337,154.94428986038957
mp-bxgfo,CsUO3,Cubic,221,129.135,70.632,179.22039023048356
mp-bxgyx,AcTiO3,Cubic,221,179.412,77.02,202.13506273811225
mp-bxivr,SrOsO3,Cubic,221,185.233,60.942,164.75749321566354
mp-nkm,RbPdF3,Cubic,221,67.565,22.825,61.544608571301886
mp-nkn,KPdF3,Cubic,221,68.848,19.737,54.0464147851565
mp-npw,K3AuO,Cubic,221,18.66,11.654,28.93770529615282
mp-cbgit,KNbO3,Cubic,221,172.61,109.553,271.2688899284807
mp-cdhli,ZnBiO3,Cubic,221,152.502,59.718,158.46911574868915
mp-cdhvr,SrHgO3,Cubic,221,102.967,42.81,112.79759640727755
mp-cdhwm,SrHoO3,Cubic,221,84.713,46.093,117.04977078059635
mp-cdhxl,SrInO3,Cubic,221,95.953,41.576,108.98683306873889
mp-cdhyw,YbTmO3,Cubic,221,96.796,45.698,118.45317112881823
mp-cdhze,ZrAlO3,Cubic,221,217.28,98.184,255.99284246904097
mp-ojx,Ca3GeO,Cubic,221,58.534,48.427,113.87648100022766
mp-cdife,TaBeO3,Cubic,221,277.307,103.594,276.36763945206644
mp-cdinq,SnBO3,Cubic,221,225.06,73.067,197.7958230103161
mp-cdjcl,SiBiO3,Cubic,221,130.571,76.857,192.75168731032716
mp-cdjcx,SiBO3,Cubic,221,203.008,53.644,147.90430557684996
mp-cdjls,ScCuO3,Cubic,221,186.205,68.294,182.5626341781662
mp-cdjnv,ScPdO3,Cubic,221,118.718,23.645,66.51882703745929
mp-cdjpc,ScAsO3,Cubic,221,135.67,45.595,123.0054083582815
mp-cdjtj,KTcO3,Cubic,221,180.938,111.434,277.3624158239689
mp-cdjtl,SbTeO3,Cubic,221,125.028,40.829,110.4627984891071
mp-cdjyi,KBeO3,Cubic,221,92.168,27.945,76.13988825714651
mp-cdkbf,KReO3,Cubic,221,201.94,119.458,299.3474732171664
mp-cdkds,LuUO3,Cubic,221,151.069,85.959,216.76378246959194
mp-cdkqn,LaCdO3,Cubic,221,130.971,44.298,119.42924634101155
mp-cdkur,HoSnO3,Cubic,221,90.383,34.59,92.0299069794825
mp-cdkxx,KSiO3,Cubic,221,178.452,117.855,289.7733567560865
mp-cdlya,NdBiO3,Cubic,221,116.027,22.598,63.66102021965095
mp-cdmby,KPtO3,Cubic,221,119.312,51.104,134.1577450420497
mp-cdmpi,RbTeO3,Cubic,221,122.161,88.194,213.26085354218492
mp-cdmpy,RbSbO3,Cubic,221,117.294,105.897,244.2002461056536
mp-cdmqa,RbRuO3,Cubic,221,155.247,85.574,216.87413003818145
mp-cdmqi,RbReO3,Cubic,221,195.873,126.82,312.92458102091297
mp-cdmrv,RbPdO3,Cubic,221,95.483,47.559,122.36139246065962
mp-cdmsy,RbIrO3,Cubic,221,141.653,78.796,199.41282586177806
mp-cdmtc,RbNpO3,Cubic,221,133.382,69.83,178.36354524486356
mp-cdmtn,RbInO3,Cubic,221,74.482,11.05,31.58789446301856
mp-cdmvj,NdGeO3,Cubic,221,149.618,70.624,183.06760765229708
mp-cdmwa,RbCuO3,Cubic,221,84.711,31.992,85.2448014259502
mp-cdmws,RbCaO3,Cubic,221,40.141,9.212,25.672156655224285
mp-cdmxe,RbBeO3,Cubic,221,84.653,13.871,39.457849632229404
mp-cdmyj,RbAsO3,Cubic,221,102.651,101.456,228.94230147358752
mp-cdmyl,RbAlO3,Cubic,221,112.414,41.005,109.67919013237382
mp-cdmzb,InCuO3,Cubic,221,160.872,55.989,150.50651529785281
mp-cdmzv,RbAcO3,Cubic,221,61.109,33.337,84.62281042074366
mp-cdnrd,PrNbO3,Cubic,221,187.182,34.435,97.33617268000155
mp-cdnuc,NaLiO3,Cubic,221,49.933,13.061,36.040612900650856
mp-cdnzp,NaAsO3,Cubic,221,126.053,121.985,276.69866447463124
mp-cdobp,NaBeO3,Cubic,221,109.135,30.372,83.38108369179683
mp-cdowl,PrBiO3,Cubic,221,114.926,23.371,65.66205507552648
mp-cdpdz,NaReO3,Cubic,221,211.053,96.474,251.15385967739942
mp-cdpfs,NaPdO3,Cubic,221,104.533,38.431,102.7065008862881
mp-cdpll,NaTeO3,Cubic,221,137.484,78.761,198.39742823581625
mp-cdplr,NaTiO3,Cubic,221,138.443,68.649,176.73481348945612
mp-cdpns,NaTcO3,Cubic,221,190.453,92.535,238.91180699780386
mp-cdpwq,NbTlO3,Cubic,221,176.002,93.616,238.55241463139976
mp-cdpyl,PaAgO3,Cubic,221,140.937,44.187,120.0181777459432
mp-cdrmf,SiPbO3,Cubic,221,199.931,116.389,292.42276744039924
mp-cdrmg,SiPdO3,Cubic,221,232.071,87.065,232.1619585064307
mp-cdrmj,SiSnO3,Cubic,221,203.42,116.859,294.2339837358121
mp-cdrmu,SmGaO3,Cubic,221,182.901,103.136,260.452501037833
mp-cdsad,SrAsO3,Cubic,221,144.779,86.516,216.4359227574767
mp-cdsda,SmGeO3,Cubic,221,145.68,69.014,178.80628486288026
mp-cdsea,SnPbO3,Cubic,221,146.405,80.046,203.11984083148934
mp-cdsre,SrAgO3,Cubic,221,110.647,45.527,120.10775409041297
mp-cdtuo,RbTbO3,Cubic,221,60.84,12.55,35.227754139539655