material_id,formula_pretty,symmetry.crystal_system,symmetry.number,bulk_modulus.vrh,shear_modulus.vrh,youngs_modulus_vrh
mp-bxgwc,Yb2CuRh,Cubic,225,54.848,25.194,65.54598766720426
mp-bxgwd,Ac2SiPd,Cubic,225,57.83,17.435,47.52858164200602
mp-bxgwf,YbNbRu2,Cubic,225,163.841,66.692,176.17218410110797
mp-bxgwh,LaYbCd2,Cubic,225,40.401,20.338,52.24690967281566
mp-bxgwl,Li2TlPd,Cubic,225,48.609,13.18,36.26255183734049
mp-bxgwo,LiZrPt2,Cubic,225,139.016,27.199,76.60122782145969
mp-bxgwp,Li2YTl,Cubic,225,41.319,32.362,76.98673419098127
mp-bxgwq,LiZrRh2,Cubic,225,137.351,45.895,123.88637422807832
mp-bxgwr,Be2CuPt,Cubic,225,173.915,70.542,186.4211224794736
mp-bxgws,LiZr2Os,Cubic,225,134.753,47.3,127.03622804550456
mp-bxgwu,LiZr2Re,Cubic,225,126.874,37.587,102.6264794444883
mp-bxgww,Li2AgHg,Cubic,225,37.398,9.484,26.234353687601704
mp-bxgwy,Ti2TcOs,Cubic,225,225.088,99.119,259.2960812001296
mp-bxgwz,Ti2RePt,Cubic,225,212.512,77.792,207.99633389997314
mp-bxgxa,Ti2TcNi,Cubic,225,168.312,73.802,193.17179797421284
mp-bxgxb,Li2AgAu,Cubic,225,49.503,17.539,47.05927233691463
mp-bxgxg,LuInRh2,Cubic,225,138.075,43.403,117.85953443626701
mp-bxgxk,TiSnRu2,Cubic,225,205.955,106.326,272.14552786488645
mp-bxgxp,LiZr2Tc,Cubic,225,117.351,26.476,73.87245279489815
mp-bxgxq,YbPmAu2,Cubic,225,68.459,25.776,68.70511157545003
mp-bxgxr,GaGeRu2,Cubic,225,203.806,74.202,198.51421386190603
mp-bxgxs,YbPmAg2,Cubic,225,51.003,21.554,56.67792119750462
mp-bxgxt,Li2AcIn,Cubic,225,35.03,19.316,48.95065607768113
mp-bxgxu,TiZnCo2,Cubic,225,180.042,89.75,230.88500831909772
mp-bxgxx,BeCo2Si,Cubic,225,226.523,132.598,332.8483806729405
mp-bxgxz,YbPmPt2,Cubic,225,91.912,34.918,92.97948503479756
mp-bxgya,BeSiIr2,Cubic,225,268.28,105.257,279.25059816700855
mp-bxgye,Yb2HgPb,Cubic,225,37.023,28.619,68.26678836406849
mp-bxgyf,Yb2HgGe,Cubic,225,44.342,32.244,77.8596903975313
mp-bxgyi,LiZn2Rh,Cubic,225,102.513,37.415,100.07048781866568
mp-bxgyk,TiVTc2,Cubic,225,226.153,95.113,250.25571323806963
mp-bxgym,TiVRe2,Cubic,225,257.696,111.69,292.772419929067
mp-bxgyo,Yb2CdSn,Cubic,225,36.108,25.303,61.535217553338775
mp-bxgyp,MgAlAg2,Cubic,225,80.359,21.024,58.0127834079229
mp-bxgyq,YbPmZn2,Cubic,225,45.614,29.381,72.56314954007567
mp-bxgyr,MgAlIr2,Cubic,225,188.646,106.717,269.3589085608521
mp-bxgyu,LiZrAu2,Cubic,225,103.353,5.343,15.757464160024348
mp-bxgyv,LiZrIr2,Cubic,225,164.912,53.838,145.6627370309202
mp-bxgyw,Cd2PdRh,Cubic,225,123.024,48.221,127.94622180578153
mp-bxgyy,Ti2TcPt,Cubic,225,201.234,72.828,194.964344179859
mp-bxgyz,Cd2PtRh,Cubic,225,136.955,44.683,120.90063480686997
mp-bxgza,TiZnCu2,Cubic,225,130.031,52.34,138.44447150189973
mp-bxgzb,Ti2TcPd,Cubic,225,182.368,65.713,175.99958136931576
mp-bxgzc,Li2CePb,Cubic,225,46.894,33.556,81.28063669234035
mp-bxgzd,LiSiIr2,Cubic,225,230.966,127.917,323.9466876190128
mp-bxgzf,Li2MgSn,Cubic,225,34.883,21.546,53.60198155235945
mp-bxgzg,LiSc2Tc,Cubic,225,82.734,32.676,86.6238924230449
mp-bxgzo,ThSnRu2,Cubic,225,152.686,51.878,139.8006784616109
mp-bxgzr,YbPrAg2,Cubic,225,54.172,18.108,48.877885463725754
mp-bxgzs,Ti2ReRh,Cubic,225,213.72,102.659,265.4712145293412
mp-bxgzv,Ac2IrAu,Cubic,225,75.286,17.573,48.913276871064085
mp-bxgzw,AcTlAu2,Cubic,225,59.76,10.319,29.272153123170487
mp-bxhab,AcSnAu2,Cubic,225,70.36,14.645,41.08450459630081
mp-bxhah,LiGaAg2,Cubic,225,66.916,27.563,72.70631450959436
mp-bxhai,Li2CaSn,Cubic,225,34.099,27.664,65.32600260078021
mp-bxhaj,Li2CaSi,Cubic,225,40.875,29.73,71.78578812641528
mp-bxhak,BeAlIr2,Cubic,225,237.931,124.518,318.06839027759383
mp-bxham,CeAlAg2,Cubic,225,68.397,13.835,38.88329447188919
mp-bxhan,LuReTc2,Cubic,225,218.979,90.915,239.5878891344812
mp-bxhas,TmNi2Sn,Cubic,225,117.1,32.569,89.41714256686525
mp-bxhaw,YbPrHg2,Cubic,225,48.488,21.802,56.880767065631986
mp-bxhax,AcMgCd2,Cubic,225,43.051,14.378,38.81311704091799
mp-bxhba,TmCdPd2,Cubic,225,102.769,28.97,79.44497066209672
mp-bxhbb,TmCdHg2,Cubic,225,64.458,20.768,56.26161003446311
mp-bxhbc,BaTlHg2,Cubic,225,26.909,8.57,23.242563244005957
mp-bxhbe,Li2CaGe,Cubic,225,37.315,26.755,64.78201459985581
mp-bxhbh,Al2IrRu,Cubic,225,218.535,127.182,319.5549559841949
mp-bxhbj,YbSmZn2,Cubic,225,45.837,29.126,72.10545171840586
mp-bxhbk,YbSnRh2,Cubic,225,126.934,36.271,99.35001312959601
mp-bxhbl,YbSmRh2,Cubic,225,90.68,29.843,80.67850511622052
mp-bxhbm,YbScRh2,Cubic,225,108.619,40.561,108.21318093270528
mp-bxhbn,YbSnAu2,Cubic,225,70.05,15.34,42.889276686327555
mp-bxhbo,YbSbPd2,Cubic,225,91.016,23.938,66.02556710417326
mp-bxhbp,YbPrZn2,Cubic,225,43.874,28.411,70.10140362300275
mp-bxhbr,YbTlPd2,Cubic,225,82.283,15.978,45.019955963428416
mp-bxhbs,CaLaCd2,Cubic,225,40.129,20.861,53.34008000821251
mp-bxhbt,AlVRu2,Cubic,225,236.108,125.212,319.2087613060504
mp-bxhbu,YbTl2Cd,Cubic,225,34.091,11.787,31.70678198316676
mp-bxhbw,Er2InAg,Cubic,225,65.736,30.299,78.79149026623355
mp-bxhbx,Dy2TlCd,Cubic,225,57.964,25.723,67.22476641534954
mp-bxhbz,DyMgTl2,Cubic,225,47.333,10.569,29.510528374233132
mp-bxhca,Dy2TlAg,Cubic,225,61.975,25.22,66.622868171162
mp-bxhce,Hf2ZnRe,Cubic,225,160.36,60.682,161.6552834639565
mp-bxhcg,CaSmHg2,Cubic,225,49.261,25.27,64.73987292910265
mp-bxhch,CaPrZn2,Cubic,225,43.686,26.267,65.64437602415381
mp-bxhck,Ac2ZnGe,Cubic,225,47.092,21.003,54.854044478952915
mp-bxhcm,YbSmHg2,Cubic,225,50.682,25.265,64.99498942535998
mp-bxhcq,Be2RhAu,Cubic,225,183.765,27.888,79.63552949585882
mp-bxhcs,ErNbOs2,Cubic,225,202.723,87.3,229.02453035289852
mp-bxhcx,Al2FeIr,Cubic,225,203.229,110.178,279.9445491279615
mp-bxhcz,AlZnRh2,Cubic,225,184.832,92.448,237.7116699807093
mp-bxhdd,GaNiRh2,Cubic,225,173.642,64.205,171.47982501354397
mp-bxhdr,HfFe2Sn,Cubic,225,183.726,107.986,270.88633864106663
mp-bxheb,CaSmZn2,Cubic,225,45.189,27.213,67.99087303722817
mp-bxhec,HfSiRu2,Cubic,225,228.517,106.888,277.41129079209884
mp-bxhed,NdDyMg2,Cubic,225,40.013,22.984,57.87131529893793
mp-bxheh,Nd2CdIn,Cubic,225,50.858,21.146,55.71603391664749
mp-bxhej,MgScRh2,Cubic,225,127.869,60.221,156.1496603211154
mp-bxhel,MgTaOs2,Cubic,225,228.974,100.834,263.7812709062197
mp-bxhen,MgSnRh2,Cubic,225,147.583,26.257,74.36105610375988
mp-bxher,MgSc2Cd,Cubic,225,57.839,33.262,83.73465082044113
mp-bxhet,MgSc2Ru,Cubic,225,90.878,16.985,47.96669234407963
mp-bxheu,MgSc2Tl,Cubic,225,58.309,23.613,62.41389016319129
mp-bxhev,MgSc2Os,Cubic,225,105.142,25.439,70.621407425227
mp-bxhew,MgSc2Tc,Cubic,225,88.439,22.204,61.46784410182212
mp-bxhfa,MgSiIr2,Cubic,225,213.993,97.486,253.90234072200846
mp-bxhfb,MgSiRh2,Cubic,225,179.203,75.943,199.62924228264268
mp-bxhfc,Hf2CoTc,Cubic,225,177.082,84.695,219.14702854656528
mp-bxhfi,HfZnCu2,Cubic,225,129.32,43.166,116.53216015735538
mp-bxhfr,Ac2MgSn,Cubic,225,38.111,15.688,41.38537860807101
mp-bxhfs,CaCdHg2,Cubic,225,38.807,11.995,32.623736021991036
mp-bxhfv,Ac2IrPd,Cubic,225,77.317,20.378,56.19683997479481
mp-bxhfx,HoNbOs2,Cubic,225,200.406,84.188,221.54171826917184
mp-bxhga,HoNbRu2,Cubic,225,173.786,66.781,177.59479611792455
mp-bxhgc,HfTc2W,Cubic,225,246.139,118.179,305.623827252287
mp-bxhgd,Be2PdRh,Cubic,225,193.549,99.772,255.42634384401376
mp-bxhge,HoTaRu2,Cubic,225,183.596,73.942,195.57104491220204
mp-bxhgf,HfZnAu2,Cubic,225,137.013,16.877,48.63411419297245
mp-bxhgi,Tm2TlAg,Cubic,225,66.273,29.296,76.60085602437368
mp-bxhgn,LuTaRu2,Cubic,225,190.885,87.342,227.35027436488346
mp-bxhgp,LuTaOs2,Cubic,225,218.717,102.576,266.1247522863955
mp-bxhgq,NaTmTl2,Cubic,225,37.535,23.164,57.63573908624207
mp-bxhgt,Lu2TlAg,Cubic,225,65.545,29.72,77.45345408760575
mp-bxhgu,Na2TlSb,Cubic,225,24.55,18.578,44.50718979051915
mp-bxhgv,Lu2TlCd,Cubic,225,60.239,21.558,57.78119519466073
mp-bxhha,LuSbRu2,Cubic,225,168.296,88.091,225.01347674032303
mp-bxhhb,TiBe2Ir,Cubic,225,189.33,65.793,176.88909013021808
mp-bxhhc,TiGaPd2,Cubic,225,155.629,18.4,53.10705293980675
mp-bxhhd,TiFe2Si,Cubic,225,230.374,146.521,362.67438477489816
mp-bxhhf,TiBeRh2,Cubic,225,203.582,98.384,254.20290129031346
mp-bxhhi,LiSm2Ir,Cubic,225,74.686,30.036,79.45649351814683
mp-bxhhm,LiSm2Os,Cubic,225,74.266,31.695,83.24294903985572
mp-bxhho,TiBeCo2,Cubic,225,191.214,104.999,266.2608198944655
mp-bxhhq,TiBeIr2,Cubic,225,241.903,121.444,312.1030219901246
mp-bxhhr,TiAlRu2,Cubic,225,209.627,91.984,240.739902356197
mp-bxhhs,YGaRh2,Cubic,225,138.306,44.976,121.7325207634803
mp-bxhhu,YLuMg2,Cubic,225,43.556,23.614,59.99910848964881
mp-bxhhv,YZrRu2,Cubic,225,147.893,65.206,170.5524796800849
mp-bxhhw,Y2AgIr,Cubic,225,96.832,32.475,87.6288360255255
mp-bxhhy,YMgAg2,Cubic,225,64.686,13.385,37.564048871256205
mp-bxhhz,YInRh2,Cubic,225,127.682,37.6,102.71722255768508
mp-bxhia,YMgHg2,Cubic,225,61.585,26.818,70.25602874657919
mp-bxhib,YMgRh2,Cubic,225,109.638,47.658,124.87957212963258
mp-bxhic,Y2PdRu,Cubic,225,102.15,37.213,99.55034888830045
mp-bxhie,TiInPd2,Cubic,225,125.716,22.501,63.70245251207936
mp-bxhif,KTl2Bi,Cubic,225,22.656,5.834,16.118478306820954
mp-bxhih,YMgAu2,Cubic,225,83.086,20.128,55.872224510553636
mp-bxhij,Y2RuRh,Cubic,225,111.433,46.33,122.07219631189426
mp-bxhik,ThSnAu2,Cubic,225,99.611,17.763,50.299156454914154
mp-bxhil,Yb2CdIn,Cubic,225,34.611,20.71,51.79852974474679
mp-bxhim,Li2PdAu,Cubic,225,68.175,23.405,63.004970275961924
mp-bxhin,YbAgPd2,Cubic,225,91.195,24.979,68.66748551399365
mp-bxhio,Li2NdAl,Cubic,225,42.611,29.333,71.57512545334231
mp-bxhip,Li2NdTl,Cubic,225,39.457,28.708,69.3136613928569
mp-bxhiq,Li2YbPb,Cubic,225,28.662,23.4,55.18272173769952
mp-bxhir,Li2NdIn,Cubic,225,40.663,29.888,72.01894754307763
mp-bxhit,Ti2ZnRe,Cubic,225,168.977,62.502,166.92500098519054
mp-bxhix,Ti2ZnTc,Cubic,225,158.023,47.873,130.4461333079154
mp-bxhiy,TlCdRh2,Cubic,225,137.541,51.879,138.2543150535412
mp-bxhjb,Li2YbSi,Cubic,225,42.316,33.395,79.31924299782342
mp-bxhjc,Li2YbSn,Cubic,225,34.107,29.306,68.34355928494912
mp-bxhjd,Li2LaIn,Cubic,225,37.747,26.277,63.98386782350665
mp-bxhje,Li2MgCd,Cubic,225,28.998,20.86,50.47642665084281
mp-bxhjg,Li2PrIn,Cubic,225,38.333,27.925,67.4067422196412
mp-bxhjm,Li2SnPt,Cubic,225,67.708,29.364,76.96569030659646
mp-bxhjn,AcYbHg2,Cubic,225,42.483,17.216,45.501579179483635
mp-bxhjo,Pm2SiHg,Cubic,225,66.613,21.006,57.0239493853155
mp-bxhjv,Lu2CdIn,Cubic,225,59.863,20.582,55.39714740896534
mp-bxhjx,TiTc2Mo,Cubic,225,248.307,122.887,316.45631381711166
mp-bxhkc,Ti2MnRh,Cubic,225,191.897,80.041,210.81272531003515
mp-bxhkd,HfSnRu2,Cubic,225,199.577,107.6,273.6257743182729
mp-bxhke,CaNdZn2,Cubic,225,44.441,26.537,66.39545447891905
mp-bxhkh,CaYHg2,Cubic,225,52.306,27.182,69.50589477457903
mp-bxhki,Be2NiPt,Cubic,225,197.731,63.503,172.08663557719248
mp-bxhkj,AcMgHg2,Cubic,225,48.779,13.617,37.37332474961551
mp-bxhkl,CaNdRh2,Cubic,225,82.434,27.763,74.88243243596968
mp-bxhkm,CaDyHg2,Cubic,225,51.03,26.726,68.26116708190594
mp-bxhkn,Ca2SnHg,Cubic,225,36.778,28.384,67.7284906645136
mp-bxhml,CaCdPd2,Cubic,225,75.884,15.863,44.488967940373286
mp-bxhmq,Al2IrOs,Cubic,225,233.311,130.885,330.79710853038813
mp-bxhmr,ErSnRu2,Cubic,225,150.594,66.736,174.4401749910321
mp-bxhmt,DySnAu2,Cubic,225,88.94,15.162,43.04024554758816
mp-bxhmu,BeVCo2,Cubic,225,44.835,57.185,120.37667731754395
mp-bxhmv,Ac2ZnSi,Cubic,225,48.815,23.997,61.85518824585489
mp-bxhnb,DyLuMg2,Cubic,225,43.506,22.533,57.64670784248388
mp-bxhnf,ErTaOs2,Cubic,225,212.608,95.013,248.0834280146881
mp-bxhqd,TiFe2Ge,Cubic,225,210.464,127.259,317.73627607951477
mp-bxhqe,TiMn2Ge,Cubic,225,191.642,85.453,223.1861619373118
mp-bxish,BeSiOs2,Cubic,225,286.259,149.646,382.31736962167656
mp-bxisj,ScZn2Ag,Cubic,225,84.013,35.169,92.5875281085485
mp-bxisk,Sc2CoOs,Cubic,225,137.844,64.672,167.77740151065237
mp-bxiso,TaBeRu2,Cubic,225,234.983,73.87,200.5905709670668
mp-bxisq,BeGaIr2,Cubic,225,238.142,107.436,280.17503572132546
mp-bxisr,Sc2CuPt,Cubic,225,112.788,44.091,117.02401948464525
mp-bxiss,LaSnAu2,Cubic,225,77.314,21.755,59.66840218843738
mp-bxist,LiHfPd2,Cubic,225,117.376,19.867,56.41791133751797
mp-bxisu,TaMn2Al,Cubic,225,201.123,107.903,274.6009622493224
mp-bxisv,LiY2Pt,Cubic,225,71.412,30.073,79.11357209108138
mp-bxisx,TaTiOs2,Cubic,225,267.946,94.516,253.71585947633116
mp-bxisz,Al2RuPt,Cubic,225,201.068,97.729,252.30881004033193
mp-bxitb,ScCdAg2,Cubic,225,80.644,26.055,70.56541839716105
mp-bxitc,Sm2PdRu,Cubic,225,94.638,29.904,81.16326268091699
mp-bxite,SmHoMg2,Cubic,225,40.49,21.549,54.90648857844063
mp-bxitf,SmMgCd2,Cubic,225,52.617,25.367,65.56462220415025
mp-bxitl,ScVRu2,Cubic,225,194.203,87.109,227.3366732609844
mp-bxits,CaMgHg2,Cubic,225,40.504,17.74,46.44004136385832
mp-bxitt,LiHo2Ga,Cubic,225,54.046,34.678,85.70372679050483
mp-bxitu,ScNbRu2,Cubic,225,196.752,92.83,240.64377463452618
mp-bxitv,BaNaHg2,Cubic,225,20.768,2.7,7.76355916558981
mp-bxitw,LiHfRh2,Cubic,225,145.866,55.025,146.63645394145217
mp-bxitx,Sr2CdSn,Cubic,225,29.052,22.989,54.572498542829905
mp-bxiue,ScGaRu2,Cubic,225,167.594,62.044,165.6861037275196
mp-bxiuf,SmCdHg2,Cubic,225,60.568,13.446,37.55867769408147
mp-bxiuh,SmDyMg2,Cubic,225,40.294,21.856,55.52824739032353
mp-bxiui,LiCd2Au,Cubic,225,64.741,16.546,45.74126780503774
mp-bxiul,Sr2AgPt,Cubic,225,39.938,16.759,44.10746251455265
mp-bxiup,LiCa2Tl,Cubic,225,26.242,14.441,36.607881524574154
mp-bxiur,Sr2SnHg,Cubic,225,30.248,23.267,55.556235310627926
mp-bxiut,SrLi2Sn,Cubic,225,30.554,21.366,51.98137519906572
mp-bxiuu,SrMgTl2,Cubic,225,29.945,8.433,23.127932439858345
mp-bxiuz,PrCdHg2,Cubic,225,57.938,18.366,49.832468373399934
mp-bxiva,PrMgCd2,Cubic,225,50.25,23.368,60.69549386048542
mp-bxivd,SmMgHg2,Cubic,225,59.687,25.006,65.82543036355707
mp-bxive,Sm2ZnIr,Cubic,225,86.846,30.325,81.49006422267529
mp-bxivi,CeZn2Ag,Cubic,225,58.884,25.752,67.4266660342681
mp-bxivn,Sm2TlCd,Cubic,225,53.486,21.025,55.76769366827747
mp-bxivp,Sr2BiAu,Cubic,225,35.078,20.738,51.97208963896738
mp-bxivs,LiCd2Pd,Cubic,225,71.539,22.13,60.184173949405896
mp-bxiwc,LiCd2Pt,Cubic,225,84.2,23.689,64.97372027116533
mp-bxiwd,Sr2HgPb,Cubic,225,28.446,21.909,52.29993124283195
mp-bxiwg,LiCa2Hg,Cubic,225,26.023,12.698,32.76477669196955
mp-bxiwh,LiCa2In,Cubic,225,27.505,18.813,45.96028822240643
mp-bxiwj,Er2OsPd,Cubic,225,117.96,47.096,124.69324208930209
mp-bxiwk,Er2IrRu,Cubic,225,130.801,58.373,152.4420576006708
mp-bxiwm,TaFeRu2,Cubic,225,238.287,104.493,273.5007230318031
mp-bxiwn,CaPrHg2,Cubic,225,47.326,22.66,58.623552521289135
mp-bxiwo,SmAgHg2,Cubic,225,67.274,18.217,50.12645086552838
mp-bxiws,LiCa2Ir,Cubic,225,48.032,26.111,66.31614427138719
mp-bxiwt,LiGa2Ni,Cubic,225,90.52,42.228,109.63550881486863
mp-bxiwu,CaNdCd2,Cubic,225,41.739,21.903,55.92634484094617
mp-bxixd,Sc2ZnIr,Cubic,225,119.005,40.989,110.30307108722526
mp-bxixe,TbMgHg2,Cubic,225,61.719,25.823,67.98714396151294
mp-bxixf,LiY2Ir,Cubic,225,80.823,32.546,86.0832617202698
mp-bxixl,Ac2GePd,Cubic,225,56.205,16.817,45.875552035247416
mp-bxixm,Sc2ZnGa,Cubic,225,78.569,46.4,116.30485737681094
mp-bxixn,Sc2ZnOs,Cubic,225,120.86,45.33,120.87777745090828
mp-bxixp,LaAgHg2,Cubic,225,59.426,11.582,32.626395175392396
mp-bxixt,TaAlFe2,Cubic,225,219.675,139.325,345.0315956347466
mp-bxixu,LiZn2Pd,Cubic,225,87.893,26.455,72.12834012904383
mp-bxixv,LiZn2Pt,Cubic,225,104.433,31.667,86.28015021480378
mp-bxixw,LiZn2Ni,Cubic,225,41.35,35.747,83.25091240761716
mp-bxixx,LiZn2Ir,Cubic,225,116.817,40.679,109.34469022319944
mp-bxixy,SmAgAu2,Cubic,225,84.99,12.155,34.80573158633599
mp-bxixz,LiZn2Au,Cubic,225,80.793,20.303,56.20127192194364
mp-bxiyb,CaPrCd2,Cubic,225,40.978,21.552,55.01170150741249
mp-bxiyc,LiZnPd2,Cubic,225,109.393,50.885,132.16281484129328
mp-bxiyh,ScCdHg2,Cubic,225,68.137,23.311,62.77423552840744
mp-bxiyk,CaMgTl2,Cubic,225,33.477,10.983,29.700944396574936
mp-bxiyl,LiHo2Pt,Cubic,225,74.476,31.91,83.76646813243622
mp-bxiyo,Be2CoPt,Cubic,225,207.943,111.666,284.13716931046434
mp-bxiyp,Be2CoNi,Cubic,225,194.115,125.949,310.65816061550714
mp-bxiyq,LiAlCu2,Cubic,225,87.133,53.421,133.06838173241852
mp-bxiyr,Be2CuIr,Cubic,225,210.143,67.75,183.52699558422697
mp-bxiys,Be2CoIr,Cubic,225,219.36,113.398,290.18956797212627
mp-bxiyt,BeVOs2,Cubic,225,276.013,123.705,322.87851931296643
mp-bxiyv,Ho2MgAl,Cubic,225,55.443,36.114,89.01476720854758
mp-bxiyy,Be2IrPt,Cubic,225,238.159,125.302,319.8177034219717
mp-bxizd,LiTb2Ir,Cubic,225,81.503,33.159,87.59749698560871
mp-bxizf,LiInAu2,Cubic,225,76.048,20.793,57.1686594439557
mp-bxizk,Ga2RuRh,Cubic,225,199.112,92.754,240.86120655566666
mp-bxizl,LiCo2Si,Cubic,225,171.867,117.437,286.9526061800397
mp-bxizw,BeVFe2,Cubic,225,212.177,107.484,275.8690268502651
mp-bxizy,AlCuAu2,Cubic,225,134.721,18.751,53.75887589202534
mp-bxizz,Be2RuAu,Cubic,225,193.573,99.781,255.4506504290963
mp-bxjal,Al2CoIr,Cubic,225,199.848,93.491,242.6369581796013
mp-bxjas,Al2RuRh,Cubic,225,200.128,119.809,299.633875874939
mp-bxjat,Hf2TcRu,Cubic,225,193.02,91.598,237.26282790930696
mp-bxjaw,Al2FeNi,Cubic,225,163.496,89.022,226.04039310451932
mp-bxjbm,ThCdHg2,Cubic,225,72.453,16.677,46.4658775957545
mp-bxjbp,Dy2MgTl,Cubic,225,50.473,21.635,56.79065606689243
mp-bxjbq,Ca2MgIn,Cubic,225,30.387,20.709,50.62625768302493
mp-bxjbt,ThCdAu2,Cubic,225,99.567,19.368,54.56590520924705
mp-bxjcb,CeTlAu2,Cubic,225,83.944,20.109,55.86604838549539
mp-bxjcm,ThCdAg2,Cubic,225,82.451,19.287,53.67571231998199
mp-bxjek,AcPbAu2,Cubic,225,65.405,17.124,47.248543304318474
mp-bxjhr,TaGaFe2,Cubic,225,222.56,126.478,319.00515151896724
mp-bxjqy,ScSnRu2,Cubic,225,169.616,80.239,207.9291581990436
mp-bxjrg,Sc2CuAu,Cubic,225,97.087,36.068,96.28112768498971
mp-bxjrl,Sc2CoRu,Cubic,225,135.073,59.335,155.26937254872416
mp-bxjrm,DyMgAu2,Cubic,225,84.578,20.809,57.69534250736679
mp-bxjrt,ScZnRh2,Cubic,225,151.149,60.401,159.9032335262568
mp-bxjrv,TaCuRh2,Cubic,225,224.467,40.955,115.82098262630957
mp-bxjrx,DyMgCd2,Cubic,225,54.341,26.236,67.79711550837742
mp-bxjrz,Al2NiRu,Cubic,225,180.486,83.722,217.53069520458106
mp-bxjsd,Ta2CrFe,Cubic,225,231.932,99.304,260.7042861929317
mp-bxjsk,ScNbOs2,Cubic,225,220.674,108.258,279.129060897336
mp-bxjsm,TaGaOs2,Cubic,225,268.88,122.335,318.6747901719637
mp-bxjss,Sc2CuIr,Cubic,225,129.422,46.495,124.5679419497149
mp-bxjst,ScNbTc2,Cubic,225,186.133,66.322,177.84325392295122
mp-bxjsw,La2AgRu,Cubic,225,71.667,8.445,24.37747972664537
mp-bxjsx,Ca2BiAu,Cubic,225,42.058,24.891,62.369119928507594
mp-bxjsz,La2AgSn,Cubic,225,49.213,17.588,47.14740445568824
mp-bxjta,Sc2CuOs,Cubic,225,127.176,53.734,141.30127752020624
mp-bxjtb,LiCa2Cd,Cubic,225,23.718,11.67,30.07704940596928
mp-bxjtd,LiCa2Ga,Cubic,225,28.548,20.928,50.45483706789776
mp-bxjtf,LiYTl2,Cubic,225,41.8,16.305,43.286694188631316
mp-bxjti,LiYHg2,Cubic,225,52.184,12.474,34.66028270206951
mp-bxjtt,TaTiMn2,Cubic,225,207.781,83.607,221.15781116486312
mp-bxjty,DyMgHg2,Cubic,225,62.879,26.307,69.26185740006699
mp-bxjua,BeNbRu2,Cubic,225,227.135,69.434,189.03922719784134
mp-bxjub,LiVRh2,Cubic,225,179.191,80.647,210.37971788845394
mp-bxjug,LiHfPt2,Cubic,225,146.996,23.595,67.19000820090274
mp-bxjuh,BeSiRu2,Cubic,225,247.221,122.52,315.44898740197385
mp-bxjuj,BeCrRu2,Cubic,225,254.421,103.767,274.0441912771184
mp-bxjum,BeFeRh2,Cubic,225,206.038,87.815,230.67340020030343
mp-bxjuo,ScInRh2,Cubic,225,149.145,70.882,183.56577733317644
mp-bxjus,TaTiRe2,Cubic,225,257.421,116.994,304.80548622726616
mp-bxjuv,Ca2TlCd,Cubic,225,32.155,19.163,47.961362170062614
mp-bxjuw,ScMnRh2,Cubic,225,149.04,62.195,163.8001731737726
mp-bxjuz,SmCdAg2,Cubic,225,67.735,8.012,23.124253161440606
mp-bxjva,Ca2ZnRh,Cubic,225,48.691,21.138,55.397511060875196
mp-bxjvf,Sm2IrRu,Cubic,225,114.186,41.151,110.2132417378795
mp-bxjvh,SmYMg2,Cubic,225,40.002,21.373,54.425796716626955
mp-bxjvi,SmMgAg2,Cubic,225,62.849,6.665,19.312323345900868
mp-bxjvo,Sm2AgIr,Cubic,225,89.778,25.511,69.91110251827232
mp-bxjvp,Sm2AgRu,Cubic,225,83.326,27.293,73.81929109787897
mp-bxjvs,LiCdAg2,Cubic,225,58.234,8.994,25.66092546380977
mp-bxjvt,LiTm2Al,Cubic,225,53.804,35.568,87.43682631739262
mp-bxjvu,BeVRu2,Cubic,225,241.663,90.582,241.56432829759763
mp-bxjvw,SmTlAg2,Cubic,225,65.15,19.196,52.437849296050246
mp-bxjvy,AlFe2Si,Cubic,225,214.474,123.796,311.4619439794165
mp-bxjwb,ScTlRh2,Cubic,225,143.099,59.512,156.79942307117912
mp-bxjwc,SmCdAu2,Cubic,225,82.573,7.809,22.71106498309383