material_id,formula_pretty,symmetry.crystal_system,symmetry.number,bulk_modulus.vrh,shear_modulus.vrh,youngs_modulus_vrh
mp-bgmak,Tb(PRu)2,Tetragonal,139,160.356,98.512,245.3033445736568
mp-bgmlh,Cs(AsRu)2,Tetragonal,139,43.315,25.056,63.01704995451642
mp-bgmoc,Rb2CrCl4,Tetragonal,139,20.171,9.206,23.971199156614407
mp-bgmxf,Hf(SiNi)2,Tetragonal,139,187.543,76.808,202.74589161402923
mp-bgmzj,Sr(CoAs)2,Tetragonal,139,79.041,33.717,88.55866405626938
mp-bgnep,Ba(CrAs)2,Tetragonal,139,54.127,33.133,82.55423662244137
mp-bgnet,Cs(CoSe)2,Tetragonal,139,49.34,25.52,65.30143598017747
mp-bgnfa,Ba(AsPd)2,Tetragonal,139,75.501,31.358,82.63383459305595
mp-bgnfr,Hf(CoSi)2,Tetragonal,139,158.095,106.783,261.4783905928394
mp-bgnkf,Tm(SiPd)2,Tetragonal,139,135.34,50.944,135.79373569909228
mp-bgnku,Ho(FeB)2,Tetragonal,139,122.263,81.927,200.9060680006953
mp-bgnmu,Lu(CoGe)2,Tetragonal,139,133.386,66.56,171.2030593206176
mp-bgnoc,Nd(SiOs)2,Tetragonal,139,152.083,88.505,222.37735424613678
mp-ima,Ho(SiRu)2,Tetragonal,139,159.103,78.475,202.18371044326574
mp-bgqmd,Sm(CoP)2,Tetragonal,139,140.398,96.947,236.42306660542206
mp-bgrct,Ho(CoB)2,Tetragonal,139,156.483,110.53,268.3969486998667
mp-bgrkp,Sm(NiP)2,Tetragonal,139,138.122,83.438,208.35833164056538
mp-bgrlz,Yb(NiGe)2,Tetragonal,139,85.789,39.352,102.39896518928683
mp-ing,Tb(SiIr)2,Tetragonal,139,175.73,105.01,262.7027296741538
mp-bhcpe,Eu(PPd)2,Tetragonal,139,109.711,50.704,131.80674577779416
mp-ipv,Pr(NiGe)2,Tetragonal,139,116.144,45.239,120.12097854299657
mp-ipw,Ce(CoP)2,Tetragonal,139,140.722,95.364,233.37451987710855
mp-iql,Ho(CoSi)2,Tetragonal,139,135.687,94.372,229.83226488085145
mp-iqy,ErZrSb,Tetragonal,139,80.18,38.697,100.0029693056436
mp-irc,Pr(SiOs)2,Tetragonal,139,146.212,87.485,218.8131843815396
mp-ito,Yb(SiNi)2,Tetragonal,139,106.765,58.089,147.51376581726498
mp-iug,Yb(CuSi)2,Tetragonal,139,98.953,54.255,137.61415134400792
mp-iuu,Th(CuSi)2,Tetragonal,139,133.026,75.141,189.70425055512328
mp-ivw,Dy(CoSi)2,Tetragonal,139,120.084,94.317,224.2424442757865
mp-iwc,La(NiAs)2,Tetragonal,139,113.37,49.769,130.2475993064515
mp-iwd,Tm(CoGe)2,Tetragonal,139,131.945,68.577,175.35190818712692
mp-biniy,CsLi2F3,Tetragonal,139,43.461,18.167,47.83577167956918
mp-bkpor,K2H4Pd,Tetragonal,139,14.628,8.069,20.447327161087905
mp-bkpou,Na2H4Pd,Tetragonal,139,20.548,11.385,28.83033890646182
mp-bkrgf,Li2H2Pd,Tetragonal,139,42.316,29.177,71.1730048871097
mp-bmdac,VSnRh2,Tetragonal,139,187.018,77.938,205.29565308485869
mp-bmgnm,Eu(CoSi)2,Tetragonal,139,101.06,77.888,185.90448822782287
mp-kgk,Ca(PPd)2,Tetragonal,139,110.532,46.871,123.19887426909084
mp-kgy,U2IrC2,Tetragonal,139,185.335,50.107,137.89403213432502
mp-khp,Ce(FeP)2,Tetragonal,139,129.529,90.105,219.4331530608408
mp-khu,Ba(AsPd)2,Tetragonal,139,63.365,33.454,85.34287511910141
mp-kib,Sc(CuSi)2,Tetragonal,139,124.705,66.368,169.10480758621785
mp-bnrfk,Na2H4Pt,Tetragonal,139,22.706,12.865,32.46377894125928
mp-bnrgv,Cs2CaH4,Tetragonal,139,15.217,10.568,25.744308934701788
mp-kil,ThGeS,Tetragonal,139,98.687,59.761,149.17206991979134
mp-kpu,UTeP,Tetragonal,139,69.175,45.435,111.82279856499052
mp-kse,Cs2HgO2,Tetragonal,139,20.095,8.569,22.50771915938072
mp-kus,Li(CuP)2,Tetragonal,139,92.396,37.221,98.44388565212827
mp-kwr,Ba(BRh)2,Tetragonal,139,83.444,49.618,124.23043683280547
mp-kxd,Sr(CoGe)2,Tetragonal,139,71.077,52.128,125.66340958475122
mp-kxg,Ca(SiAu)2,Tetragonal,139,93.089,36.257,96.27207710665432
mp-kxh,Sr(SiAu)2,Tetragonal,139,86.085,41.023,106.19953553218079
mp-kzq,Ba(ZnP)2,Tetragonal,139,55.357,28.964,73.98795771015457
mp-lbh,NaCuO,Tetragonal,139,47.66,22.586,58.51466388026527
mp-lbi,RbCuO,Tetragonal,139,28.024,12.071,31.66636506037881
mp-ldj,Th2TeN2,Tetragonal,139,79.455,38.563,99.57898256947655
mp-bqwey,Yb4Sb2O,Tetragonal,139,53.82,36.155,88.62059509652607
mp-bqwlv,LiCuS,Tetragonal,139,32.045,8.094,22.396358690959328
mp-bqxoy,Ba3Hf2O7,Tetragonal,139,124.136,71.974,180.95035392072586
mp-bqxwk,Sr2CuO4,Tetragonal,139,104.977,56.612,143.9580918386297
mp-bqxwp,Ho2CuO4,Tetragonal,139,150.981,58.736,155.98095709223946
mp-bqxxz,Ba2HfO4,Tetragonal,139,109.181,59.646,151.3728162060389
mp-bqxya,Y2CuO4,Tetragonal,139,144.406,57.572,152.45559218402985
mp-bqych,Tm2SeO2,Tetragonal,139,89.409,29.031,78.58726799951556
mp-bqypc,La2MgO4,Tetragonal,139,132.923,78.047,195.81593828436962
mp-bqyvo,Cs2BeO2,Tetragonal,139,23.555,8.606,23.01508710625576
mp-bqzht,Sr4Sb2O,Tetragonal,139,41.23,27.873,68.24115456938699
mp-bqztx,Y2SeO2,Tetragonal,139,84.366,25.303,69.00986735679828
mp-braex,Ba3Zr2O7,Tetragonal,139,119.003,67.526,170.35619961133946
mp-brahj,NaLiO,Tetragonal,139,38.429,16.356,42.97154057564777
mp-brarz,Ba3SrI8,Tetragonal,139,19.59,6.651,17.92448617416426
mp-brekj,Li(FeP)2,Tetragonal,139,126.556,66.399,169.54566600084738
mp-lgi,Th(FeSi)2,Tetragonal,139,146.711,88.832,221.7418618774399
mp-brgwv,Rb4I2O,Tetragonal,139,11.88,5.095,13.373202405793544
mp-brrkf,Li6SbS2,Tetragonal,139,34.924,12.923,34.512134483198096
mp-brsof,Sr2HfO4,Tetragonal,139,122.77,72.528,181.78642276754726
mp-brsqq,K4I2O,Tetragonal,139,13.588,7.139,18.225217376782247
mp-brtyr,Dy2SeO2,Tetragonal,139,85.195,26.274,71.4744637212223
mp-lkl,Zr(SiNi)2,Tetragonal,139,179.797,82.806,215.35692624361738
mp-lld,Na2UO4,Tetragonal,139,70.652,33.502,86.78816635025137
mp-llr,Ba2ZnF6,Tetragonal,139,56.113,23.869,62.71461527615916
mp-bsjdl,Sr3Hf2O7,Tetragonal,139,135.285,80.788,202.12895535330827
mp-lqx,Ba(MgSi)2,Tetragonal,139,49.007,39.07,92.60163796207232
mp-lqy,Ba(MgGe)2,Tetragonal,139,43.231,32.923,78.77237121193485
mp-lqz,Sr(CuSi)2,Tetragonal,139,86.566,55.773,137.7382062439971
mp-lra,Ca(AgGe)2,Tetragonal,139,64.213,26.011,68.75005299336839
mp-lrb,Sr(AgGe)2,Tetragonal,139,59.767,31.348,80.04872201624504
mp-lrc,Sr(SiAg)2,Tetragonal,139,71.734,41.392,104.14477170939305
mp-lsh,KCuO,Tetragonal,139,33.195,14.741,38.520961592288714
mp-mfi,La(NiP)2,Tetragonal,139,124.941,75.844,189.2400083343134
mp-mhe,Sr4P2O,Tetragonal,139,50.236,33.556,82.33552372682671
mp-mhf,Sr4As2O,Tetragonal,139,46.741,32.082,78.32566006790285
mp-mhg,Ba4As2O,Tetragonal,139,38.918,21.736,54.97360698967436
mp-mhq,Li(NiP)2,Tetragonal,139,111.137,44.076,116.7888422859595
mp-mia,SmScSi,Tetragonal,139,69.1,43.35,107.55780969479355
mp-mip,Ba2ZrO4,Tetragonal,139,105.829,56.479,143.8474214741447
mp-mkd,Th(SiTc)2,Tetragonal,139,151.246,38.343,106.06592898730088
mp-mqa,Tm(SiRh)2,Tetragonal,139,157.698,86.03,218.37880409354634
mp-msc,Eu(PRh)2,Tetragonal,139,133.042,72.154,183.32119379562045
mp-msd,Ba(PRh)2,Tetragonal,139,81.062,40.46,104.06604246137793
mp-bxcqb,ErMgSn,Tetragonal,139,58.946,37.695,93.21514745983136
mp-bxffl,Na3ZrF8,Tetragonal,139,41.055,16.564,43.801323848306374
mp-bxfgf,Na3HfF8,Tetragonal,139,43.786,17.57,46.49146016867211
mp-mvi,CsAgO,Tetragonal,139,21.37,8.448,22.39317290994791
mp-bxiwr,Ce3(TaN3)2,Tetragonal,139,171.176,85.541,219.9798286073891
mp-bxjbo,DyMgSn,Tetragonal,139,57.967,37.406,92.35293870056363
mp-mvs,Tl(CuS)2,Tetragonal,139,28.231,16.05,40.47892111610732
mp-mvy,Ca2SiO4,Tetragonal,139,152.578,98.816,243.8133659725092
mp-nab,Ca4As2O,Tetragonal,139,56.917,40.92,99.02817466729029
mp-nbe,Ca2ZnN2,Tetragonal,139,81.76,44.53,113.06357682619647
mp-ncv,Rb2MgF4,Tetragonal,139,39.398,21.019,53.53637273817818
mp-ngs,Rb2HgF4,Tetragonal,139,32.512,11.131,29.972481507725437
mp-ngt,Cs2HgF4,Tetragonal,139,28.269,10.514,28.062886394393683
mp-npb,Ba3Zr2S7,Tetragonal,139,59.427,30.289,77.67109184925924
mp-nrr,Ba(CuAs)2,Tetragonal,139,58.575,26.516,69.1183899407143
mp-nty,Sr2ZnN2,Tetragonal,139,67.594,35.522,90.68109059017056
mp-ntz,Ba2ZnN2,Tetragonal,139,53.731,23.848,62.32344178857658
mp-nun,Ba2HfS4,Tetragonal,139,56.786,30.354,77.29054663398303
mp-oaj,Ba(NiP)2,Tetragonal,139,76.493,36.39,94.22769269828375
mp-oep,K2ZnF4,Tetragonal,139,45.168,20.696,53.86153874519847
mp-ofq,Li2CN2,Tetragonal,139,49.164,19.417,51.47449503621734
mp-ois,Ca(AlGa)2,Tetragonal,139,58.788,11.435,32.21618336625861
mp-cdiwu,Sm(AgGe)2,Tetragonal,139,83.302,41.54,106.85782518888577
mp-cdmvv,Rb(FeAs)2,Tetragonal,139,39.583,24.942,61.83764239931519
mp-cdsaf,Sr(GeIr)2,Tetragonal,139,90.062,63.466,154.1812248330596
mp-cdsfi,Sr(GePd)2,Tetragonal,139,76.495,31.552,83.21476327110716
mp-omx,Yb4As2O,Tetragonal,139,62.732,42.842,104.6930768791281
mp-cdtzt,Ti2H4Pd,Tetragonal,139,139.691,64.14,166.87884361554845
mp-ouc,CsAuO,Tetragonal,139,22.044,8.773,23.23647430745611
mp-cggxf,Na2ZnS2,Monoclinic,14,30.666,14.149,36.78897289607808
mp-cgpbv,Na3OsN2,Monoclinic,14,41.387,20.467,52.71185082418342
mp-cgpia,K3BN2,Monoclinic,14,29.455,12.232,32.23398351839518
mp-cgpiu,Li2GeN2,Monoclinic,14,83.069,43.636,111.40163827033598
mp-cgpix,ZnGeN2,Monoclinic,14,148.878,74.731,192.0578028099316
mp-cgple,SrCrN2,Monoclinic,14,92.015,32.947,88.30184550085438
mp-rlm,LaCuSe2,Monoclinic,14,56.604,29.194,74.73379990553049
mp-rlp,SmCuSe2,Monoclinic,14,62.981,30.835,79.52648679576664
mp-cqbnf,Cu2CO5,Monoclinic,14,61.818,28.883,74.97260690408095
mp-vpo,CaAl2O4,Monoclinic,14,78.458,44.59,112.4643882070552
mp-zan,Ag2SeO3,Monoclinic,14,31.512,8.633,23.73181734823445
mp-ffkqd,Ca2SiO4,Monoclinic,14,87.228,43.197,111.22992657463077
mp-bojb,Li3BO3,Monoclinic,14,72.847,42.251,106.21770366038834
mp-bphg,FeSbS,Monoclinic,14,123.849,95.505,227.92705888209449
mp-bpqs,BaNb2O6,Monoclinic,14,90.563,35.739,94.75285111635895
mp-bqje,Na3BN2,Monoclinic,14,46.765,24.856,63.345166302353604
mp-eiu,Y2Si4Mo3,Monoclinic,14,156.022,98.283,243.68153211888782
mp-brpf,LiBeN,Monoclinic,14,92.715,65.035,158.13124373506616
mp-brui,Ca3AlN3,Monoclinic,14,93.704,48.55,124.19982527558528
mp-ejz,CaAl2O4,Monoclinic,14,81.122,43.029,109.6925115382601
mp-btvp,Te(HO)6,Monoclinic,14,26.626,18.976,46.00010909017338
mp-btxu,CuSe2Cl,Monoclinic,14,5.622,5.1370000000000005,11.813022133345454
mp-far,Ba2TiO4,Monoclinic,14,64.743,30.35,78.74534328677214
mp-fbk,Na3AlF6,Monoclinic,14,50.993,28.155,71.33597908178476
mp-fdm,MgSiO3,Monoclinic,14,97.725,67.421,164.4456816631355
mp-fhw,NdPO4,Monoclinic,14,114.656,55.684,143.77644134396922
mp-fjv,LiBO2,Monoclinic,14,62.738,31.277,80.4602823532628
mp-fnv,NdCuSe2,Monoclinic,14,62.416,30.024,77.62528929636584
mp-foy,KN3O4,Monoclinic,14,14.515,6.382,16.698631401846693
mp-fwk,LaPO4,Monoclinic,14,104.626,48.615,126.28529905405068
mp-fwl,K2CO3,Monoclinic,14,27.466,12.321,32.15487150413328
mp-gde,Rb2CO3,Monoclinic,14,24.861,10.78,28.25596827665382
mp-gef,TaNO,Monoclinic,14,267.592,129.73,335.0459851625619
mp-geu,Ca2SiO4,Monoclinic,14,96.958,48.988,125.78048306665646
mp-gfn,Na2S2O3,Monoclinic,14,27.015,13.524,34.76993243028899
mp-ghl,Hg(CO2)2,Monoclinic,14,44.013,20.522,53.28434576333401
mp-gho,SnPS3,Monoclinic,14,16.223,11.956,28.794386672164947
mp-gsz,SrSiN2,Monoclinic,14,96.042,34.515,92.46811989176827
mp-gtg,Li2SO4,Monoclinic,14,45.0,21.273,55.13150064310534
mp-gxh,ScOF,Monoclinic,14,142.79,62.971,164.70162638574837
mp-gxi,ScOF,Monoclinic,14,104.243,46.104,120.54123630769745
mp-hjw,TlAsS2,Monoclinic,14,8.873,5.635,13.951577943820922
mp-bctpg,As2Pb3O8,Monoclinic,14,40.636,21.852,55.591269115191984
mp-bdbfz,CsB5O8,Monoclinic,14,27.061,16.982,42.13262484592268
mp-hqe,La2SiO5,Monoclinic,14,99.469,44.933,117.15781788606049
mp-hve,AgCO2,Monoclinic,14,33.367,11.493,30.928028200440888
mp-bfpcq,Cd(CO2)2,Monoclinic,14,45.668,22.782,58.60135045623522
mp-bfrhs,Bi(BO2)3,Monoclinic,14,87.617,50.69,127.48492723439678
mp-bfuzz,BaBiO3,Monoclinic,14,106.167,49.331,128.14523612138152
mp-bfwid,Ba(PO3)2,Monoclinic,14,51.839,24.574,63.66239442281958
mp-bfyqp,FeAsS,Monoclinic,14,139.131,117.383,274.8525131213816
mp-imn,CaSiO3,Monoclinic,14,92.34,47.273,121.14569040959874
mp-iub,Na5SiP3,Monoclinic,14,30.046,16.822,42.529023074046364
mp-bjbxy,Cs2CO3,Monoclinic,14,22.432,8.493,22.623794798717494
mp-bqvee,TiOF,Monoclinic,14,154.987,66.392,174.28916772089363
mp-bqvne,Ba2GeO4,Monoclinic,14,64.347,31.103,80.36111905293026
mp-bqwhl,LiCuF4,Monoclinic,14,27.725,19.272,46.93984011244839
mp-bqwyu,TiOF,Monoclinic,14,135.307,57.512,151.12429554218193
mp-bqxpe,HfZrO4,Monoclinic,14,203.819,98.598,254.72014401419605
mp-lge,NbNO,Monoclinic,14,236.601,110.04,285.81102279338853
mp-brplx,Sr4Cu2O7,Monoclinic,14,94.546,53.21,134.41413913694012
mp-brtjy,Ca(ClO3)2,Monoclinic,14,22.378,13.661,34.05350234544216
mp-ncc,CaSiPd,Monoclinic,14,65.66,32.776,84.30095161823849
mp-nhm,CaSiPt,Monoclinic,14,61.333,33.737,85.52891018940369
mp-ogp,Ag2HgS2,Monoclinic,14,52.636,12.745,35.37946816053629
mp-cdrec,Na(BH)6,Monoclinic,14,11.036,6.038,15.32004066826751
mp-cesvn,AgAuO2,Monoclinic,14,63.604,17.878,49.039296602616325
mp-cfsgm,CsPbBr3,Tetragonal,140,17.687,7.34,19.344103905564477
mp-paz,KAlTe2,Tetragonal,140,17.465,10.999,27.27194710855917
mp-cgafg,BaZrO3,Tetragonal,140,147.064,90.422,225.12648100313382
mp-pft,Ca(BC)2,Tetragonal,140,135.308,95.251,231.44410789045745
mp-cgown,Ba(CoN)2,Tetragonal,140,94.162,35.797,95.3128317440768
mp-ckxny,Cs3CoCl5,Tetragonal,140,11.595,6.079,15.524032033085355
mp-rqk,Ca(BeN)2,Tetragonal,140,112.136,62.379,157.8646843954291
mp-rql,Sr(BeN)2,Tetragonal,140,104.82,68.742,169.23144440791017
mp-sdu,CaCuF4,Tetragonal,140,74.693,34.337,89.32342373924216
mp-srm,SrPdF4,Tetragonal,140,62.819,23.43,62.517485876906086
mp-srn,BaPdF4,Tetragonal,140,53.745,15.044,41.28034547507077
mp-tax,SrSnO3,Tetragonal,140,138.388,83.126,207.77613034979635
mp-tdf,Ba(BeN)2,Tetragonal,140,98.183,62.055,153.76920781875694
mp-yqi,LiSn4Rh,Tetragonal,140,63.729,40.822,100.91809861686401
mp-bdjn,KInTe2,Tetragonal,140,14.982,9.325,23.16825468482246
mp-bdxa,MgSn4Ru,Tetragonal,140,73.432,49.19,120.6336533994345
mp-beey,InGaTe2,Tetragonal,140,22.152,13.508,33.67844209894452
mp-bfnd,LiSn4Ru,Tetragonal,140,68.495,45.755,112.26675101496578
mp-bgkc,LiSn4Ir,Tetragonal,140,69.115,46.562,114.07008735481888
mp-bgxc,TlInSe2,Tetragonal,140,22.596,11.724,29.98590824026562
mp-bitk,Tl5Se2I,Tetragonal,140,15.431,8.241,20.986940972604245
mp-biud,InSn2Br5,Tetragonal,140,11.176,6.001,15.26991788307319
mp-bive,KSn2I5,Tetragonal,140,8.774000000000001,4.925,12.446236438698113
mp-bjhe,KHF2,Tetragonal,140,26.337,13.538,34.67301379809614
mp-bkmu,CsHF2,Tetragonal,140,19.452,8.117,21.377505994915225
mp-bqrj,Tl2SnTe5,Tetragonal,140,19.458,8.949,23.27832654516287
mp-bsau,RbHF2,Tetragonal,140,22.876,10.868,28.14666539196941
mp-emd,Tl4SnTe3,Tetragonal,140,26.737,13.957,35.665138698921076
mp-fah,CaSiO3,Tetragonal,140,214.891,122.375,308.55379992516765
mp-fck,CaTiO3,Tetragonal,140,171.657,106.112,263.94831005839796
mp-fnd,SrHfO3,Tetragonal,140,154.085,98.02,242.61426138949625
mp-gwx,SrTiO3,Tetragonal,140,168.22,101.114,252.70905274904504
mp-hng,SrZrO3,Tetragonal,140,143.03,87.474,217.9839399958185
mp-hwf,KAuF4,Tetragonal,140,22.107,10.288,26.71920197365845
mp-bfsib,AlTlF4,Tetragonal,140,40.935,24.485,61.24408496842962
mp-bmced,KCuF3,Tetragonal,140,78.848,33.832,88.79586140781727
mp-kyd,KAgF4,Tetragonal,140,23.276,10.958,28.41489456093878
mp-brgws,Ti3PdO,Tetragonal,140,170.984,45.205,124.63157405532851
mp-mbx,CaPdF4,Tetragonal,140,75.302,30.762,81.22540057973725
mp-nlb,CdCuF4,Tetragonal,140,84.837,32.065,85.43173763678743
mp-oel,AlTlSe2,Tetragonal,140,27.221,13.611,34.99953060646137
mp-oem,TlGaSe2,Tetragonal,140,24.333,12.675,32.39940909727572
mp-cetaa,SrAgO2,Tetragonal,140,77.721,41.425,105.52657736317683
mp-cgfmz,MgCuO2,Tetragonal,141,126.208,71.609,180.65903220776798
mp-chovw,Zn(AgO2)2,Tetragonal,141,64.706,26.799,70.64420051874687
mp-chpav,Mg(CuO2)2,Tetragonal,141,60.487,26.547,69.47682541536864
mp-chpbg,Zn(CuO2)2,Tetragonal,141,63.223,33.875,86.22513744497728
mp-pot,CeSiO4,Tetragonal,141,148.899,56.926,151.47445661933628
mp-uoq,Sr(CuO)2,Tetragonal,141,68.022,26.331,69.965257959088
mp-xll,SrLi4N2,Tetragonal,141,52.666,28.749,72.96959793731627
mp-bpxj,Pd2Cl2O,Tetragonal,141,44.532,12.248,33.65823361948383
mp-bupk,Li2Sn2Au,Tetragonal,141,47.106,21.387,55.727262210749515
mp-bxhq,LiHoSe2,Tetragonal,141,46.754,31.404,76.9771739540736
mp-bxjf,LiYS2,Tetragonal,141,53.265,36.134,88.41007502717821
mp-bxpm,LiBiS2,Tetragonal,141,49.655,32.521,80.0804045215609
mp-bxrw,Ca2NF,Tetragonal,141,67.777,48.769,118.00376285997619
mp-bxta,AgBiSe2,Tetragonal,141,53.367,21.01,55.7181288270729
mp-bxux,LiDyS2,Tetragonal,141,53.412,36.047,88.2811108246766
mp-bykv,NaYF4,Tetragonal,141,68.677,32.05,83.20647447717373
mp-bzab,LiSmS2,Tetragonal,141,50.115,32.154,79.46662387191164
mp-cajc,LiSmSe2,Tetragonal,141,43.726,27.524,68.25137563483763
mp-caqx,LiErS2,Tetragonal,141,53.745,37.776,91.81623166558633
mp-cavt,LiDySe2,Tetragonal,141,46.015,30.614,75.17137472651919
mp-cbbp,TiNbN2,Tetragonal,141,289.181,148.536,380.4665790199384
mp-cbht,ErAgS2,Tetragonal,141,53.466,20.563,54.679142036129335
mp-cbiq,ScUS2,Tetragonal,141,98.649,34.446,92.5642222625782
mp-cclb,LiNdS2,Tetragonal,141,47.891,29.894,74.23578206686754
mp-cclk,MgTaN2,Tetragonal,141,243.254,173.986,421.47270477611016
mp-ceax,LiYSe2,Tetragonal,141,45.569,30.214,74.23509261267307
mp-ceqi,LiTiO2,Tetragonal,141,170.849,122.647,296.89678385973417
mp-cfgh,LiTbSe2,Tetragonal,141,46.042,29.91,73.75827786902806
mp-fyc,ErPO4,Tetragonal,141,141.94,66.446,172.4313829514937
mp-gbw,HoPO4,Tetragonal,141,138.301,63.957,166.24452556697156
mp-gfo,ScPO4,Tetragonal,141,149.784,78.155,199.72685989001096
mp-hdk,ZrSiO4,Tetragonal,141,202.03,97.007,250.8685400307497
mp-bfbwv,ScAsO4,Tetragonal,141,142.55,67.656,175.24371842860776
mp-iiq,DyAsO4,Tetragonal,141,127.515,54.647,143.44912497255208
mp-inv,DyPO4,Tetragonal,141,132.418,62.37,161.71957064905226
mp-iqm,ThSiO4,Tetragonal,141,162.659,58.134,155.83675251734536
mp-iqq,LiScO2,Tetragonal,141,118.79,81.291,198.57611486972797
mp-bmlsg,NaHoF4,Tetragonal,141,71.34,32.839,85.41154399880094
mp-bmmqa,V2CN,Tetragonal,141,304.511,200.726,493.69982640840243
mp-kxq,Ba(CuO)2,Tetragonal,141,56.503,21.409,57.02476740275929
mp-bqwji,YUO4,Tetragonal,141,190.218,34.164,96.70259444659386
mp-bqxlb,NaSmO2,Tetragonal,141,91.596,48.531,123.73912230335985
mp-bqyhh,LiLuO2,Tetragonal,141,114.047,69.919,174.16509667766832
mp-bqzgf,LiZrO2,Tetragonal,141,158.131,100.522,248.83817510066706
mp-bqzta,NaLaO2,Tetragonal,141,82.441,37.902,98.59622767288982
mp-lfx,Mg2NF,Tetragonal,141,104.566,73.225,178.10160716731752
mp-brgwm,LiZnO2,Tetragonal,141,94.162,49.385,126.10837744183736
mp-lia,LuAsO4,Tetragonal,141,136.399,63.025,163.84014886007003
mp-lug,YbAgS2,Tetragonal,141,66.819,24.035,64.38515396985193
mp-mnu,NaPrO2,Tetragonal,141,84.293,42.149,108.38222444310371
mp-mtj,NbBO4,Tetragonal,141,249.352,141.476,356.924665968172
mp-bqzow,CdBiO3,Trigonal,146,100.02,28.386,77.79820573244915
mp-phe,Zn(ReO4)2,Trigonal,147,26.19,12.192,31.662769881668538
mp-bfqag,Na4Ti5O12,Trigonal,147,133.543,60.956,158.71881445887539
mp-mxo,K2TeO3,Trigonal,147,23.313,14.44,35.90653456428733
mp-ckupu,Ag(Mo3Se4)2,Trigonal,148,47.099,12.815,35.24815176624792
mp-uaz,BaIrF6,Trigonal,148,26.708,10.041,26.768427349858595
mp-udm,ZnPbF6,Trigonal,148,20.125,16.281,38.46921473857232
mp-uer,TiCdO3,Trigonal,148,148.77,42.573,116.59695037462951
mp-dasyd,MgBiF6,Trigonal,148,15.823,16.557,36.82617528816419
mp-uot,ZnSnF6,Trigonal,148,21.356,19.106,44.151412989636185
mp-uox,CdSnF6,Trigonal,148,12.236,11.044,25.469288323002182
mp-urv,ZnPdF6,Trigonal,148,40.303,21.554,54.87893528846086
mp-usf,Ti3NiS6,Trigonal,148,73.57,41.198,104.15272439177116
mp-uxy,TiZnO3,Trigonal,148,169.135,45.719,125.82015530875535
mp-defsc,CaSbF6,Trigonal,148,7.511,11.184,22.42273084794021
mp-vqq,ZnSnO3,Trigonal,148,143.83,32.654,91.0700631269606
mp-xdl,ZnRhF6,Trigonal,148,35.559,19.802,50.10518633132772
mp-xdn,HgRhF6,Trigonal,148,24.756,8.073,21.84448442452727
mp-bdfa,MgPbF6,Trigonal,148,20.958,19.324,44.34331161342126
mp-bics,NaBiO3,Trigonal,148,57.489,23.569,62.20604464996225
mp-bofg,NaMnCl3,Trigonal,148,27.676,9.818,26.339386855653448
mp-boor,RbBiF6,Trigonal,148,13.584,6.409,16.614124043171266
mp-eiq,FePSe3,Trigonal,148,17.852,8.942,22.98782770648661
mp-btud,MgPSe3,Trigonal,148,10.068,6.5120000000000005,16.071068308094564
mp-buaa,Li3AlH6,Trigonal,148,36.478,24.109,59.26954552466247
mp-ccae,SnHgF6,Trigonal,148,16.357,9.206,23.255192923451787