material_id,formula_pretty,symmetry.crystal_system,symmetry.number,bulk_modulus.vrh,shear_modulus.vrh,youngs_modulus_vrh
mp-bjp,VN,Cubic,225,316.753,162.007,415.22965678983263
mp-bju,ZrP,Cubic,225,135.366,68.268,175.3297976499159
mp-bjv,ThP,Cubic,225,112.228,56.224,144.5355239598074
mp-bjx,YAs,Cubic,225,75.352,50.989,124.81404880795539
mp-bkm,ZnTe,Cubic,225,53.63,20.206,53.85447508503776
mp-bkv,HgSe,Cubic,225,57.045,17.977,48.804315352806796
mp-blj,K2O,Cubic,225,27.218,12.49,32.49888872365737
mp-cdhmu,ZnCo3,Cubic,225,183.266,51.41,141.04161212092987
mp-cdhnc,ZnCr3,Cubic,225,108.873,71.217,175.4051316849154
mp-blk,MnSe,Cubic,225,44.652,33.162,79.7445315046853
mp-cdhym,Zn6Mo,Cubic,225,91.897,48.313,123.32680414130691
mp-cdhzj,V3Mo,Cubic,225,203.583,36.67,103.77900168206372
mp-cdhzu,Tl3Si,Cubic,225,34.443,9.412,25.878763218350024
mp-cdizn,Si3Ge,Cubic,225,83.175,34.903,91.85984932917995
mp-cdjld,ScH3,Cubic,225,110.897,30.278,83.25684643592152
mp-cdjop,ScZn3,Cubic,225,78.798,38.927,100.26960425830211
mp-cdjov,Mn3Al,Cubic,225,179.795,91.053,233.7071483873117
mp-cdjth,K3Zr,Cubic,225,6.941,2.439,6.54981906112974
mp-cdjwr,SbPt3,Cubic,225,178.413,26.833,76.6560231803043
mp-cdkag,K3W,Cubic,225,8.076,2.93,7.841671698946903
mp-cdkgs,K3Sn,Cubic,225,9.269,2.325,6.436805555555556
mp-cdlfy,Na3Al,Cubic,225,14.872,4.102,11.269848844369639
mp-cdlln,Re3Pb,Cubic,225,244.499,26.112,75.6431545597801
mp-cdllp,Re3Sb,Cubic,225,259.398,53.395,149.8997772818063
mp-cdlne,Re3F,Cubic,225,277.045,48.767,138.1925278440099
mp-cdlrh,ReP3,Cubic,225,185.152,76.961,202.78605358173485
mp-cdmas,Rb3Ru,Cubic,225,3.293,2.7,6.361388027665156
mp-cdmbz,Rb3Os,Cubic,225,6.657,2.648,7.0139981431539855
mp-cdmgb,Rb3Ir,Cubic,225,12.992,4.304,11.627960073937155
mp-cdmxa,RbCa3,Cubic,225,11.666,5.689,14.68063179885467
mp-cdnbs,InSb3,Cubic,225,53.357,12.164,33.91477302522716
mp-cdnqv,Mo3I,Cubic,225,178.725,20.22,58.45554956460787
mp-cdnvj,Li3Ga,Cubic,225,23.233,19.231,45.216961733948054
mp-cdnwu,Li3C,Cubic,225,54.763,33.718,83.92879800209084
mp-cdnyv,LaAu3,Cubic,225,80.791,7.408,21.564881043794365
mp-cdoei,Li3Mg,Cubic,225,18.913,4.316,12.032701203832609
mp-cdohi,Li3Tc,Cubic,225,34.091,18.07,46.07014392195642
mp-cdokb,NaEr3,Cubic,225,33.418,18.579,47.02277311857818
mp-cdpbr,NaTm3,Cubic,225,33.868,20.509,51.193479056283934
mp-cdpet,NaRe3,Cubic,225,236.918,94.173,249.4654910644071
mp-cdpji,Na3Ca,Cubic,225,9.908,2.301,6.407018641686183
mp-cdpmg,NaTc3,Cubic,225,186.78,62.388,168.41297606659728
mp-cdpmi,NaTa3,Cubic,225,132.843,16.731,48.17070292587777
mp-cdpnx,NaMo3,Cubic,225,165.314,14.462,42.156682964867045
mp-cdpof,Na3Bi,Cubic,225,19.11,9.212,23.810103092783507
mp-cdpoq,Na3C,Cubic,225,22.193,4.584,12.866158087770328
mp-cdpqd,Li3Th,Cubic,225,26.408,5.399,15.163621332261915
mp-cdprv,MgRe3,Cubic,225,261.655,99.376,264.62647951412407
mp-cdpvy,Ta3Ru,Cubic,225,225.21,86.954,231.11708750773687
mp-cdpxq,Nb3Ru,Cubic,225,208.891,88.985,233.7617838618446
mp-cdrea,Mg3Co,Cubic,225,59.866,25.887,67.877267333382
mp-cdrej,Mg3Mn,Cubic,225,46.208,28.117,70.12716143000222
mp-cdrep,Mg3Pa,Cubic,225,48.729,32.735,80.23772557315476
mp-cdrmz,Si3Ru,Cubic,225,153.635,36.773,102.16762383509017
mp-cdros,SmRe3,Cubic,225,218.927,75.823,203.9264285876135
mp-cdsai,SrH3,Cubic,225,45.849,29.168,72.19453971148366
mp-cdsis,TmO3,Cubic,225,158.954,14.701,42.78402724777902
mp-cdsqz,TaW3,Cubic,225,275.924,121.472,317.7827420052168
mp-cdtpv,RbYb3,Cubic,225,10.064,5.601,14.173614282122202
mp-cdtqa,Yb3Zr,Cubic,225,25.447,16.111,39.91032701293644
mp-cdtqp,Yb3Mn,Cubic,225,19.156,10.761,27.191362089434108
mp-cdtso,Yb3Os,Cubic,225,45.883,8.033,22.770165504317625
mp-cdttq,Yb3Mg,Cubic,225,19.265,9.43,24.32161472666419
mp-cdvbd,ZnSn3,Cubic,225,47.267,3.808,11.12523692903598
mp-blt,SrF2,Cubic,225,65.882,32.403,83.51685951253864
mp-cdvnt,UCr3,Cubic,225,177.103,26.475,75.65512335420163
mp-cdvti,Sr3Yb,Cubic,225,12.899,6.768,17.28151078851864
mp-cdxyv,Na3Tl,Cubic,225,11.581,3.209,8.812996969856663
mp-ceauj,AcMg3,Cubic,225,34.101,17.525,44.88583824314851
mp-cebnn,Ag3Ge,Cubic,225,82.772,10.842,31.165259092908578
mp-cechq,Al2Cu,Cubic,225,96.231,59.777,148.5683254885643
mp-osd,GeSb,Cubic,225,60.206,22.852,60.85637984960928
mp-bmg,YP,Cubic,225,85.85,58.797,143.60655245663781
mp-cevqz,YC,Cubic,225,124.296,64.499,164.96308609080742
mp-cevuk,Ti3Sn,Cubic,225,113.274,37.386,101.04174852071006
mp-cevuo,Ti3Si,Cubic,225,131.4,42.805,115.83664488964658
mp-cevup,Ti3Ge,Cubic,225,123.634,38.711,105.15770243131931
mp-cevuq,Ti3Ga,Cubic,225,109.768,29.881,82.18549903810016
mp-cevwd,Ti3Al,Cubic,225,107.662,33.17,90.2423007333865
mp-cewkb,NbFe3,Cubic,225,198.022,78.6,208.24712829249577
mp-cewkc,NbCr3,Cubic,225,226.813,84.137,224.63468435969742
mp-cewkh,Nb3Fe,Cubic,225,187.538,75.731,200.23962356092707
mp-cewki,Nb3Ni,Cubic,225,174.363,66.041,175.91357076876076
mp-cewlz,Nb3Cr,Cubic,225,183.542,23.16,66.67554537754495
mp-cewnh,ZnN,Cubic,225,169.406,53.439,145.06359772245335
mp-cewod,Na3N,Cubic,225,29.531,6.252,17.519640550371662
mp-cewqg,Mn3Ga,Cubic,225,184.623,54.829,149.67069088940661
mp-cic,ThBe13,Cubic,226,117.752,106.867,246.13902555621
mp-cug,HfBe13,Cubic,226,125.555,129.905,289.776339844444
mp-ph,KCd13,Cubic,226,38.647,24.319,60.307340203907025
mp-bgx,MgBe13,Cubic,226,99.848,104.389,232.23479103712742
mp-bko,NaZn13,Cubic,226,64.356,47.603,114.56240266587997
mp-cfsoj,CrN2,Cubic,227,112.156,21.194,59.814317361083916
mp-bny,MgCu2,Cubic,227,91.482,42.44,110.26825015936329
mp-bok,Ni3S4,Cubic,227,119.054,45.039,119.98641961109
mp-bom,NaAu2,Cubic,227,71.011,26.679,71.12919762464956
mp-bpb,LiAl,Cubic,227,48.228,32.432,79.47997055037378
mp-pwj,Ti2C,Cubic,227,121.304,84.645,206.01616677479115
mp-bpt,UOs2,Cubic,227,491.593,23.809,70.29219480804599
mp-brj,SmPt2,Cubic,227,156.601,70.297,183.44237080725793
mp-rfw,Li2Ca,Cubic,227,16.117,8.546,21.78714058737719
mp-btr,ThIr2,Cubic,227,203.203,75.228,200.89305565557933
mp-btt,PrAl2,Cubic,227,73.605,44.934,112.00908989309461
mp-bum,ErAl2,Cubic,227,82.064,59.812,144.36317078208128
mp-byh,LiGa,Cubic,227,42.172,20.189,52.231993265396554
mp-bzr,NdNi2,Cubic,227,108.469,38.425,103.1005846791926
mp-bzx,SrPt2,Cubic,227,117.262,51.148,133.9659869457529
mp-cag,DyIr2,Cubic,227,198.438,87.843,229.6434100887498
mp-cbk,DyRh2,Cubic,227,154.129,61.485,162.8061703717702
mp-dbcnc,CoSe2,Cubic,227,30.307,14.349,37.179408064975775
mp-cbw,HfW2,Cubic,227,222.256,94.6,248.5378403084973
mp-cbx,ZrZn2,Cubic,227,103.307,60.056,150.92248093259852
mp-cby,SmNi2,Cubic,227,110.17,42.419,112.78208739465153
mp-dcbsm,CrS2,Cubic,227,47.363,17.435,46.58838259446854
mp-ccv,TiCr2,Cubic,227,198.812,72.775,194.58270963866406
mp-cdh,LiCd,Cubic,227,35.162,11.921,32.13177934876115
mp-ceh,LaIr2,Cubic,227,174.499,65.07,173.6282349673019
mp-cfn,ErIr2,Cubic,227,202.819,90.008,235.22723825531696
mp-chy,SrPd2,Cubic,227,80.634,31.664,83.99711508009037
mp-cla,SrAl2,Cubic,227,47.886,32.398,79.30826357522608
mp-clr,UIr2,Cubic,227,239.465,91.056,242.4390424621132
mp-ytc,ThAl2,Cubic,227,80.85,50.525,125.4440544229293
mp-cmx,BaPd2,Cubic,227,73.421,24.388,65.87065710747146
mp-cnh,TbPt2,Cubic,227,163.153,73.747,192.27138670220137
mp-cnm,LaRh2,Cubic,227,131.545,42.873,116.01515644285361
mp-coe,SmRu2,Cubic,227,157.736,22.054,63.21580839232568
mp-con,SmFe2,Cubic,227,91.626,26.401,72.2624618177835
mp-cpu,ErRh2,Cubic,227,160.655,62.27,165.43566960963557
mp-crf,TaCo2,Cubic,227,247.841,123.87,318.54140168297414
mp-bbcm,Mg2Pd,Cubic,227,68.21,27.547,72.83593047545622
mp-cti,EuPd2,Cubic,227,91.067,35.417,94.0576358183904
mp-cvl,LaMg2,Cubic,227,33.099,20.642,51.26827822476425
mp-cwk,LiZn,Cubic,227,41.652,22.505,57.211088626823354
mp-cwp,ErNi2,Cubic,227,123.362,47.466,126.21064257385908
mp-bdkh,PbAu2,Cubic,227,82.187,21.597,59.57284045599983
mp-cyx,Sb2O3,Cubic,227,12.83,10.31,24.39540368852459
mp-czo,PrNi2,Cubic,227,98.368,35.656,95.43682631515297
mp-daa,Be2Nb,Cubic,227,156.483,103.427,254.26288615511913
mp-dad,Be2Cu,Cubic,227,135.017,126.036,288.3765249535387
mp-begu,Co3Se4,Cubic,227,98.035,38.025,101.01474686116882
mp-dci,CeAl2,Cubic,227,74.275,49.823,122.15541623265163
mp-dcs,CeOs2,Cubic,227,192.391,31.442,89.4529717440418
mp-ddy,LuNi2,Cubic,227,72.924,50.812,123.70440601816131
mp-bhfw,LiIn,Cubic,227,32.743,7.674,21.353767485340356
mp-dio,ZrNi2,Cubic,227,166.427,73.267,191.673821375675
mp-djb,ScIr2,Cubic,227,216.325,101.732,263.8373880888283
mp-dli,YAl2,Cubic,227,79.891,61.069,146.00478586629072
mp-dlx,HfCo2,Cubic,227,183.341,71.054,188.77530922252797
mp-dnt,TaCr2,Cubic,227,242.207,77.779,210.77519179139728
mp-dom,CaAl2,Cubic,227,55.931,35.322,87.53835530610738
mp-jq,Mg2Ge,Cubic,227,39.618,11.194,30.691398775836618
mp-bljq,TiO2,Cubic,227,107.79,73.07,178.80621960447985
mp-dth,PrRh2,Cubic,227,138.487,50.28,134.55576648824132
mp-jy,ZrV2,Cubic,227,138.858,8.879,26.08109858903333
mp-dyn,PrRu2,Cubic,227,151.337,15.68,45.469633099207776
mp-dyw,YPt2,Cubic,227,162.277,73.5,191.57647087168124
mp-dyy,TaBe2,Cubic,227,167.518,119.142,288.928778702131
mp-fwmfk,WN2,Cubic,227,121.564,25.475,71.43501654419774
mp-dzq,LaAl2,Cubic,227,64.416,45.077,109.6532897849575
mp-eaq,NdPt2,Cubic,227,151.763,67.611,176.60668146299483
mp-eav,TbIr2,Cubic,227,196.495,86.675,226.69314529845008
mp-ebt,TiBe2,Cubic,227,124.06,108.384,251.81884485729267
mp-kq,TbNi2,Cubic,227,119.456,45.523,121.17615740880585
mp-ecg,YIr2,Cubic,227,196.294,88.026,229.73695213529757
mp-bsxk,NaAg2,Cubic,227,47.598,20.815,54.50049404372621
mp-btay,Be22W,Cubic,227,133.551,149.843,327.1688485238766
mp-btfq,Ti2Co,Cubic,227,96.827,24.714,68.32862926759624
mp-btng,LiPt2,Cubic,227,135.254,64.55,167.0716700828386
mp-mg,SrIr2,Cubic,227,146.445,51.052,137.2116129913721
mp-pk,NdAl2,Cubic,227,72.11,47.046,115.92697717331876
mp-pu,YbPt2,Cubic,227,141.375,61.282,160.63568253033023
mp-sm,ErPt2,Cubic,227,166.753,74.793,195.19558954842347
mp-bdbby,Li13In3,Cubic,227,22.544,17.785,42.24575154828664
mp-tu,HfZn2,Cubic,227,110.274,59.457,151.1970948014113
mp-va,HoRh2,Cubic,227,156.517,61.943,164.17154808709034
mp-vc,NbCr2,Cubic,227,228.632,57.068,158.05360526754998
mp-vf,BaAl2,Cubic,227,42.631,31.802,76.40664740912365
mp-vr,C3N4,Cubic,227,383.458,175.607,457.05118026125564
mp-bghei,TaV2,Cubic,227,194.158,26.294,75.47491666447645
mp-bgiuy,ScB2,Cubic,227,180.697,145.697,344.5001908742229
mp-bgkgq,Be22Re,Cubic,227,136.579,150.5,330.2107063617718
mp-bgljl,BiAu2,Cubic,227,100.689,23.96,66.59747800028832
mp-bglzz,Mg2Sn,Cubic,227,38.486,6.979,19.743575438797095
mp-bgnbz,TmPt2,Cubic,227,169.621,75.074,196.26627972880638
mp-wk,CeIr2,Cubic,227,195.743,73.319,195.5423817088236
mp-xf,Be2Ag,Cubic,227,125.633,84.594,207.26247639292467
mp-zx,HoNi2,Cubic,227,124.103,47.113,125.46261700864522
mp-zz,ZrW2,Cubic,227,213.964,87.007,229.86352256211077
mp-knh,NdSi2,Cubic,227,80.01,4.652,13.690662492541339
mp-bbn,ZrIr2,Cubic,227,245.659,126.396,323.6756705108916
mp-bcr,ThMg2,Cubic,227,50.194,18.428,49.25611081001125
mp-bct,BaPt2,Cubic,227,103.144,39.324,104.67006131507415
mp-bdc,TbAl2,Cubic,227,79.498,56.275,136.59424685092395
mp-bfn,HfCr2,Cubic,227,188.948,66.783,179.2326219621323
mp-bgb,CaPd2,Cubic,227,93.613,38.03,100.48302440814253
mp-mjg,SiO2,Cubic,227,146.005,53.406,142.80604058434622
mp-bgi,SmRh2,Cubic,227,146.007,55.461,147.68370080975598
mp-bgk,CaPt2,Cubic,227,132.905,58.912,153.98412733514414
mp-bgs,ScNi2,Cubic,227,142.02,61.092,160.29200857227312
mp-bha,TmAl2,Cubic,227,83.144,60.864,146.77690896434373
mp-big,NdIr2,Cubic,227,183.307,78.105,205.17421112342484
mp-njf,TiS2,Cubic,227,46.408,30.78,75.6214216136091
mp-bit,ZrCr2,Cubic,227,180.27,54.434,148.36832394782644
mp-bjc,LaPt2,Cubic,227,143.888,60.396,158.94878029508595
mp-bjl,YRh2,Cubic,227,152.291,61.818,163.35144689612886
mp-bkk,PrIr2,Cubic,227,179.692,75.41,198.46695202168968
mp-bkp,CeRh2,Cubic,227,144.079,49.52,133.28945655174707
mp-cgivl,TcF6,Cubic,229,6.037,3.815,9.453634725896196
mp-cgn,Sb7Mo3,Cubic,229,107.671,52.551,135.59331695529923
mp-bgps,Sn7Ir3,Cubic,229,110.258,62.286,157.24766725690733
mp-bhbk,Sn7Ru3,Cubic,229,106.18,36.31,97.78374580808794
mp-eaz,Sn7Os3,Cubic,229,119.38,38.727,104.84384778779794
mp-brwz,Sb3Au,Cubic,229,66.29,18.302,50.27883990569687
mp-bcufc,Ge7Ir3,Cubic,229,141.767,85.13,212.79589678134752
mp-bgmlf,NiHg4,Cubic,229,50.645,28.861,72.7614997289763
mp-bkuvw,Ca3Ag8,Cubic,229,49.399,17.366,46.633410278866656
mp-bka,Hg4Pt,Cubic,229,60.904,30.648,78.73674600674916
mp-btjb,Ga4Ni3,Cubic,230,135.145,66.1,170.5022119248836
mp-djl,Ag3Sb,Orthorhombic,25,75.098,20.968,57.54803329786975
mp-cdnzv,Li3Mg,Orthorhombic,25,19.333,11.268,28.30493880202694
mp-bfrjx,ZrO2,Orthorhombic,29,194.099,94.708,244.37715057939008
mp-bmzlx,HfO2,Orthorhombic,29,208.48,109.345,279.21937764107867
mp-ddkle,WN,Orthorhombic,31,308.354,149.602,386.3285417321134
mp-bhov,Te2W,Orthorhombic,31,18.391,12.518,30.609192388943875
mp-bglyo,ZrI2,Orthorhombic,31,10.273,7.752,18.582008866765186
mp-cewhh,OsN,Orthorhombic,31,319.999,197.237,490.8607808507181
mp-dis,Al2O3,Orthorhombic,33,201.586,104.324,266.9258573423102
mp-bhwj,ZnCl2,Orthorhombic,33,6.193,5.677,13.044976459432716
mp-iw,SbO2,Orthorhombic,33,94.068,58.618,145.60885804320142
mp-bqcq,Br2O,Orthorhombic,33,5.004,2.591,6.628885758109413
mp-pm,CdP2,Orthorhombic,33,54.996,28.366,72.61369728063552
mp-bfnrd,SiO2,Orthorhombic,33,19.96,36.105,67.5720393811533
mp-qts,P2W,Orthorhombic,36,188.205,132.466,321.8806304719251
mp-bimb,BrF3,Orthorhombic,36,6.798,3.764,9.532620581173939
mp-bevyg,SbPd2,Orthorhombic,36,126.402,39.637,107.65791636961819
mp-bnrfz,H2O,Orthorhombic,36,15.606,8.999,22.644455022663347
mp-bbp,B2O3,Orthorhombic,36,168.858,157.964,361.2455059123782
mp-bqxzl,Al2O3,Orthorhombic,36,92.512,45.373,116.99247399112443
mp-lix,K2S3,Orthorhombic,36,14.703,9.043,22.513415506472008
mp-lyn,AsPd2,Orthorhombic,36,124.288,28.671,79.87137169113527
mp-fhlhi,MgZn,Orthorhombic,38,43.601,21.384,55.13791622149066
mp-cdrdy,MgCd,Orthorhombic,38,42.072,13.131,35.68090370083317
mp-cdwhn,Sm5Mg,Orthorhombic,38,35.158,17.254,44.48491939899616
mp-saj,Te2O5,Monoclinic,4,47.587,39.669,93.12919107054759
mp-cdjbs,SiO2,Monoclinic,4,25.788,36.205,73.9893004252921
mp-cui,SbF3,Orthorhombic,40,13.266,8.1,20.19064261555806
mp-bfojt,SiO2,Orthorhombic,40,24.084,37.443,73.98691743470532
mp-bpak,SO2,Orthorhombic,41,4.436,2.642,6.613116489028213
mp-qyb,Hf2Ga3,Orthorhombic,43,116.63,64.955,164.35371006038403
mp-unk,PdF4,Orthorhombic,43,37.214,18.844,48.367990006590745
mp-cfa,Zr2Al3,Orthorhombic,43,107.69,69.751,172.09713001596145
mp-boif,Au2O3,Orthorhombic,43,80.505,38.407,99.41197839040875
mp-btkg,Zr2Ga3,Orthorhombic,43,110.808,67.469,168.25737026654627
mp-brgxk,Cu2O3,Orthorhombic,43,95.16,44.243,114.91911368027101
mp-bgo,Hf2Al3,Orthorhombic,43,114.235,68.632,171.54204139185146
mp-nfz,PtF4,Orthorhombic,43,39.735,19.123,49.43808661297785
mp-cezyk,LiO3,Orthorhombic,44,36.573,18.166,46.75658648004066
mp-chdhe,Mg3Bi,Orthorhombic,44,39.456,7.408,20.915042869863885
mp-bhga,NaO3,Orthorhombic,44,23.841,12.571,32.075378730943946
mp-btmg,LiIr3,Orthorhombic,44,242.519,112.944,293.3007734958079
mp-bmysr,InSb,Orthorhombic,44,47.174,18.782,49.74422729314302
mp-bxgmt,MgRh3,Orthorhombic,44,181.297,85.898,222.54667413054216
mp-cdlnb,Re3Ru,Orthorhombic,44,352.99,193.1,489.95768687054243
mp-cevrt,KO3,Orthorhombic,44,14.064,5.756,15.195033286059898
mp-ceipw,P2O5,Orthorhombic,47,246.057,160.992,396.5008312130281
mp-cewqb,Mn3Fe,Orthorhombic,47,125.464,115.101,264.4377168667712
mp-bmhvi,Fe8N3,Monoclinic,5,210.46,93.26,243.77276495915217
mp-cfxfv,VPt,Orthorhombic,51,236.927,116.114,299.42722486168134
mp-qsx,MgCd,Orthorhombic,51,42.673,21.298,54.780406691803336
mp-qzp,MoIr,Orthorhombic,51,309.568,182.715,458.0310882574439
mp-sql,MoRh,Orthorhombic,51,265.285,132.684,341.1721795853486
mp-cca,CdAu,Orthorhombic,51,89.162,15.441,43.79487987360699
mp-zci,AlPt2,Orthorhombic,51,205.051,83.974,221.66297978192802
mp-bgnkt,TaIr,Orthorhombic,51,273.081,96.097,258.02475988485156
mp-cewjo,NbPt,Orthorhombic,51,229.595,109.899,284.330659115495
mp-cewok,MoPt,Orthorhombic,51,275.137,137.971,354.6343436383491
mp-bjkc,HN,Orthorhombic,53,24.384,10.503,27.553001828940296
mp-cft,Al3Pt5,Orthorhombic,55,199.949,63.445,172.12913580293446
mp-yln,Al3Pd5,Orthorhombic,55,157.304,48.459,131.83892035490064
mp-zfp,Hf3Rh5,Orthorhombic,55,192.803,66.741,179.50985849337363
mp-ztt,Ti3Rh5,Orthorhombic,55,204.618,71.393,191.8645916961329
mp-zya,GeAs2,Orthorhombic,55,13.477,10.712,25.40505281270164
mp-bfce,Si3Rh5,Orthorhombic,55,198.297,76.444,203.21827822473134
mp-doq,Ga3Pd5,Orthorhombic,55,144.994,37.74,104.18102402680647
mp-bpig,Li7Si2,Orthorhombic,55,32.647,28.995,67.1156951928531
mp-bmgnf,Li13Si4,Orthorhombic,55,32.333,28.036,65.24886545367298
mp-qr,DyAl,Orthorhombic,57,64.494,42.112,103.75366924454784
mp-bbs,TlF,Orthorhombic,57,6.828,4.15,10.352593975805798
mp-cfyxs,CoAs2,Orthorhombic,58,124.542,87.289,212.27410637970124
mp-cfzcu,MnS2,Orthorhombic,58,126.738,110.749,257.3003685776729
mp-cjkuv,FeB4,Orthorhombic,58,262.93,188.133,455.708676333754
mp-bxl,PtO2,Orthorhombic,58,209.304,87.687,230.82642462049276
mp-tiy,IrN2,Orthorhombic,58,320.194,194.111,484.4392386599728
mp-ccj,P2Ru,Orthorhombic,58,187.136,138.396,333.07878306497247
mp-cgo,FeS2,Orthorhombic,58,162.063,125.99,300.18157488250984
mp-chj,Ge2Pt,Orthorhombic,58,110.087,51.923,134.606434882151
mp-ctz,Fe2C,Orthorhombic,58,222.238,102.436,266.3804796359618
mp-cvd,NaO2,Orthorhombic,58,32.685,8.992,24.710002895924223
mp-bdhj,InS,Orthorhombic,58,20.396,15.524,37.14735029721556
mp-bdic,NiAs2,Orthorhombic,58,102.3,52.095,133.60594576526134
mp-bdkq,FeTe2,Orthorhombic,58,94.192,73.813,175.57597699143355
mp-bdlf,NiSb2,Orthorhombic,58,75.371,38.66,99.04554369214381
mp-cyy,CuSe2,Orthorhombic,58,69.631,23.155,62.53340793715093
mp-bdqh,FeP2,Orthorhombic,58,175.013,154.075,357.3570148384512
mp-czg,FeAs2,Orthorhombic,58,135.973,111.737,263.133565106532
mp-beay,RhN2,Orthorhombic,58,216.587,120.735,305.4482865647583
mp-beqs,FeSb2,Orthorhombic,58,91.182,56.905,141.3171858762721
mp-bewk,CoSe2,Orthorhombic,58,109.411,55.11,141.56189597827532
mp-dfw,HfSb2,Orthorhombic,58,84.365,49.015,123.18809134090233
mp-bgit,CuAs2,Orthorhombic,58,82.504,23.8,65.13665742761101
mp-bhgy,Co2C,Orthorhombic,58,257.718,109.037,286.68075064696876
mp-bhhi,CrSb2,Orthorhombic,58,56.636,33.759,84.48974313953659
mp-bhml,Co2N,Orthorhombic,58,246.43,87.348,234.3547099939756
mp-bhwc,YbBr2,Orthorhombic,58,15.965,11.345,27.516987255232955
mp-bhwi,CaBr2,Orthorhombic,58,19.942,10.337,26.442200105468697
mp-biiw,CaCl2,Orthorhombic,58,16.828,11.051,27.199090793857156
mp-dql,As2Os,Orthorhombic,58,166.406,119.207,288.68632474107613
mp-dzr,Sb2Os,Orthorhombic,58,128.863,87.742,214.53431488559679
mp-bqpl,Mg2C3,Orthorhombic,58,90.273,47.964,122.24205038537188
mp-bwxt,W2C,Orthorhombic,58,334.316,171.769,439.9579856561197
mp-bcsnz,Hf2P,Orthorhombic,58,149.153,78.671,200.72252288787942
mp-bgjth,PdI2,Orthorhombic,58,5.123,3.14,7.821923388621752
mp-bgllb,PtN2,Orthorhombic,58,274.597,167.557,417.709871569822
mp-bioml,RuN2,Orthorhombic,58,279.032,161.786,406.7459823762967
mp-bjcbv,Ti2S,Orthorhombic,58,147.515,86.318,216.68900628329072
mp-kzo,BPd2,Orthorhombic,58,173.199,46.36,127.68735214866149
mp-bdg,FeSe2,Orthorhombic,58,125.468,92.204,222.18541563097514
mp-bdm,As2Ru,Orthorhombic,58,150.88,105.88,257.4242096970565
mp-blr,ZrSb2,Orthorhombic,58,81.547,49.955,124.45221070550855
mp-ooh,CoSb2,Orthorhombic,58,99.768,63.715,157.59633264374594
mp-osn,CoTe2,Orthorhombic,58,74.058,44.805,111.85718056476351
mp-cgizm,TbAu3,Orthorhombic,59,101.371,26.739,73.73397325994705
mp-cgjbi,LuAu3,Orthorhombic,59,112.13,35.878,97.26057909892873
mp-bpl,B2Ru,Orthorhombic,59,283.343,170.538,426.1226718147853
mp-rao,Ni3Mo,Orthorhombic,59,214.444,91.253,239.75159442133992
mp-soo,TiCu3,Orthorhombic,59,141.202,51.729,138.29855643283156
mp-syk,AlCu3,Orthorhombic,59,131.586,46.444,124.66494180896731
mp-cdv,NbNi3,Orthorhombic,59,205.078,77.484,206.4510721072644
mp-djpcn,Ta2O5,Orthorhombic,59,194.214,59.754,162.58751642911847
mp-bdeq,Cu3Ge,Orthorhombic,59,123.646,44.057,118.13936649357221