material_id,formula_pretty,symmetry.crystal_system,symmetry.number,bulk_modulus.vrh,shear_modulus.vrh,youngs_modulus_vrh
mp-beva,CuTe,Orthorhombic,59,12.527,9.402,22.561558138049932
mp-bexw,Cu3Sb,Orthorhombic,59,90.479,25.292,69.40863148529466
mp-bimq,MoBr3,Orthorhombic,59,4.428,2.494,6.299333755862595
mp-efq,B2Os,Orthorhombic,59,311.334,167.398,425.8672602033775
mp-btqo,TaPt3,Orthorhombic,59,259.644,90.679,243.67024391825774
mp-bgjlv,YbAu3,Orthorhombic,59,87.23,21.466,59.51600043792115
mp-bgksx,InAu3,Orthorhombic,59,107.88,16.267,46.46552039234261
mp-bhcqk,Cu3Sn,Orthorhombic,59,106.169,35.944,96.89702335160572
mp-bmcrk,NbPd3,Orthorhombic,59,196.318,80.945,213.4928468172067
mp-bmgql,Ni3Sb,Orthorhombic,59,168.202,51.56,140.34021511563097
mp-bih,TaNi3,Orthorhombic,59,218.124,82.317,219.35690606483874
mp-cewcm,SiNi,Orthorhombic,59,173.822,85.469,220.2995916564377
mp-crxnw,B8O,Monoclinic,6,209.358,186.929,432.1649542860578
mp-qdt,GeO2,Orthorhombic,60,216.482,123.464,311.2258902485412
mp-ckxqf,In2O3,Orthorhombic,60,156.673,65.355,172.13065116161786
mp-cdj,TiO2,Orthorhombic,60,203.794,80.898,214.33342449297967
mp-chs,Mo2C,Orthorhombic,60,295.211,151.829,388.82804215576095
mp-cmc,Th2S5,Orthorhombic,60,96.675,47.098,121.55442479451119
mp-coa,Rh2O3,Orthorhombic,60,233.122,105.314,274.59249984093054
mp-cwo,Al2O3,Orthorhombic,60,231.614,146.396,362.75853955242155
mp-dag,W2C,Orthorhombic,60,334.971,167.632,430.99985761569917
mp-benp,PbO2,Orthorhombic,60,103.849,39.538,105.25609427346653
mp-beoe,V2C,Orthorhombic,60,244.406,119.66,308.61459392785366
mp-bfua,Fe2N,Orthorhombic,60,240.287,88.269,235.91887437988953
mp-bjbz,MgH2,Orthorhombic,60,48.435,33.062,80.80094260709659
mp-bfwsh,SiO2,Orthorhombic,60,56.961,44.504,105.92529305854116
mp-bgirl,Ca3N2,Orthorhombic,60,72.375,39.943,101.21007525246239
mp-lkn,ZnF2,Orthorhombic,60,97.812,31.521,85.39033923873005
mp-bsebx,HfO2,Orthorhombic,60,200.242,96.744,249.97477802916254
mp-otx,Mn2N,Orthorhombic,60,198.001,98.928,254.412901648216
mp-cfgna,ZnBi,Orthorhombic,61,38.35,17.17,44.82094615035547
mp-byv,CdSb,Orthorhombic,61,39.053,18.412,47.734357082266854
mp-ugg,PdS2,Orthorhombic,61,21.582,16.515,39.47577029571381
mp-csu,TiO2,Orthorhombic,61,190.856,78.901,208.0353221780315
mp-ddt,TeO2,Orthorhombic,61,22.059,17.938,42.337859810973065
mp-djw,AgF2,Orthorhombic,61,30.338,11.136,29.765988370044052
mp-bctus,NiAs2,Orthorhombic,61,111.202,61.884,156.60224307062126
mp-bfsji,HgO2,Orthorhombic,61,41.06,15.676,41.7188241055482
mp-bcz,ZnSb,Orthorhombic,61,47.732,28.522,71.35366668607834
mp-bsdov,HfO2,Orthorhombic,61,217.87,103.555,268.17635607826566
mp-bsduo,Y2O3,Orthorhombic,61,139.432,64.912,168.576037350375
mp-bsens,ZrO2,Orthorhombic,61,196.653,89.526,233.1913262279521
mp-bsera,Al2O3,Orthorhombic,61,228.207,145.301,359.5860186415108
mp-ovp,SiRu2,Orthorhombic,62,256.319,102.364,271.01440576320323
mp-bmr,FeP,Orthorhombic,62,207.432,133.593,329.94681571500576
mp-cgiwv,TmPt,Orthorhombic,62,110.101,36.535,98.68895892737395
mp-cgixr,SmPt,Orthorhombic,62,97.549,32.196,87.0149223963576
mp-cgiyi,YPt,Orthorhombic,62,102.153,33.963,91.7238047217865
mp-boc,HfSi,Orthorhombic,62,151.342,95.833,237.3918058520457
mp-bqh,NiGe,Orthorhombic,62,137.06,52.238,139.048682873777
mp-ckryp,PbO2,Orthorhombic,62,92.315,35.417,94.20378661616972
mp-ckssl,PbO2,Orthorhombic,62,68.625,28.161,74.31735982925704
mp-bra,SiNi2,Orthorhombic,62,191.4,64.237,173.32118313944835
mp-qpy,Y2Al,Orthorhombic,62,54.836,30.684,77.58151161932867
mp-brh,Li2S,Orthorhombic,62,40.216,20.471,52.50430929924391
mp-brk,SiIr,Orthorhombic,62,215.0,88.554,233.59151473511153
mp-qul,TbF3,Orthorhombic,62,101.962,45.728,119.3429869800406
mp-bsc,ThS2,Orthorhombic,62,90.46,33.237,88.83145451501395
mp-rcg,Sc2Pt,Orthorhombic,62,90.609,27.047,73.79803732342057
mp-cpqbh,TiCu4,Orthorhombic,62,141.045,52.772,140.7607802784998
mp-cpqrt,Nb2N3,Orthorhombic,62,302.64,153.142,393.117512379107
mp-bvc,HgO,Orthorhombic,62,22.392,10.902,28.139274264197336
mp-sre,Ca2Cu,Orthorhombic,62,24.15,12.724,32.469549393007256
mp-svk,SrZn,Orthorhombic,62,24.149,8.793,23.5238726366322
mp-swb,MgPd2,Orthorhombic,62,115.038,37.951,102.57336024434495
mp-szq,ThCu6,Orthorhombic,62,117.353,23.0,64.76866572992516
mp-tce,HoSi,Orthorhombic,62,93.264,67.711,163.55251130493838
mp-tib,SrSi,Orthorhombic,62,44.901,33.357,80.20863925383792
mp-caj,IrSe2,Orthorhombic,62,105.86,54.983,140.60575907967242
mp-cam,YNi,Orthorhombic,62,76.598,22.852,62.35506386010465
mp-cbt,Rb2Te,Orthorhombic,62,11.617,5.003,13.124872258744418
mp-cbz,Sm2S3,Orthorhombic,62,76.96,37.195,96.10275034971556
mp-ccu,GePd,Orthorhombic,62,122.742,42.129,113.41150823555215
mp-cev,BaSi2,Orthorhombic,62,31.472,18.639,46.69815109459997
mp-cgb,Sn2S3,Orthorhombic,62,16.845,11.679,28.45974852926994
mp-wlv,Pr2S3,Orthorhombic,62,72.794,35.04,90.58533134455573
mp-cgp,ZrP2,Orthorhombic,62,126.441,83.188,204.67700264858567
mp-ckz,Re2P,Orthorhombic,62,296.64,183.029,455.4209967482144
mp-ylq,AlPt2,Orthorhombic,62,203.954,60.327,164.73848370324416
mp-zsp,Ni2Ge,Orthorhombic,62,170.822,43.404,120.04465575044527
mp-ctf,SnPd2,Orthorhombic,62,130.558,18.528,53.073382421343624
mp-cto,LaSi,Orthorhombic,62,69.385,42.891,106.68932512368251
mp-ctw,VS,Orthorhombic,62,146.997,82.483,208.45883837401666
mp-ctx,GaPd2,Orthorhombic,62,150.478,46.087,125.45343065719841
mp-cwa,TbSi,Orthorhombic,62,90.719,65.542,158.46402352982983
mp-cwn,YbCu,Orthorhombic,62,38.498,22.182,55.82428109474418
mp-bdlp,Co2Si,Orthorhombic,62,212.261,107.785,276.54554985575527
mp-bdmy,VAs,Orthorhombic,62,138.579,86.366,214.53093334634528
mp-bdsf,USe2,Orthorhombic,62,69.255,16.907,46.90414722350804
mp-elcam,Ag2Se,Orthorhombic,62,25.252,12.062,31.215771436379786
mp-bebv,TiP2,Orthorhombic,62,131.512,89.952,219.75344449398125
mp-bedp,Co3B,Orthorhombic,62,241.093,96.294,254.94041906944227
mp-befi,SiRh2,Orthorhombic,62,220.895,74.351,200.55177400425487
mp-bekb,V2P,Orthorhombic,62,206.579,103.941,267.0362378723686
mp-dbe,Ni3B,Orthorhombic,62,217.964,81.818,218.1571637846434
mp-benb,SbRh,Orthorhombic,62,133.533,57.121,149.97781708686534
mp-bene,SiPd3,Orthorhombic,62,160.007,44.115,121.205906949723
mp-betn,FeB,Orthorhombic,62,280.84,142.25,365.10597398377286
mp-bewf,CoB,Orthorhombic,62,308.915,149.359,385.8856758872749
mp-bezh,Cr3C2,Orthorhombic,62,319.679,168.003,428.8785485280025
mp-dcw,PrGe,Orthorhombic,62,70.295,46.687,114.6738154186014
mp-bfdo,CrP,Orthorhombic,62,198.838,139.444,339.0694776712801
mp-bfgd,CeSi,Orthorhombic,62,69.426,39.155,98.87676773106256
mp-bfhz,SiPt3,Orthorhombic,62,199.75,47.08,130.95178933362212
mp-bfoz,LaGe,Orthorhombic,62,63.487,39.804,98.77023834277898
mp-dfp,P2O5,Orthorhombic,62,40.395,33.316,78.39559860453979
mp-bgpl,Ti5Sb3,Orthorhombic,62,108.776,43.449,115.0311561184173
mp-bgrf,AsRh,Orthorhombic,62,157.445,60.566,161.04740811145035
mp-bgwa,Co2P,Orthorhombic,62,223.42,75.138,202.6916997899109
mp-bgxk,MnAs,Orthorhombic,62,106.766,78.122,188.41162860298178
mp-dhv,SnS,Orthorhombic,62,23.336,18.459,43.82236332191665
mp-dig,GeS,Orthorhombic,62,21.382,16.528,39.425530703820314
mp-bhkr,GeRh2,Orthorhombic,62,200.615,70.269,188.7672908390541
mp-bhmg,OsF6,Orthorhombic,62,6.233,3.152,8.091974921056243
mp-bhna,InPd2,Orthorhombic,62,129.519,35.51,97.60952210381849
mp-bhql,Ca2Sn,Orthorhombic,62,29.28,16.906,42.53211693047943
mp-djn,UF6,Orthorhombic,62,4.717,2.694,6.789455743544078
mp-bhwh,EuCl2,Orthorhombic,62,26.542,11.102,29.23048624459924
mp-bhxc,BiCl3,Orthorhombic,62,4.002,3.695,8.476307878479078
mp-bihn,NiBi3,Orthorhombic,62,29.76,10.642,28.525782910670326
mp-biih,BaCl2,Orthorhombic,62,26.245,9.183,24.671517948542956
mp-bijt,BiF3,Orthorhombic,62,54.467,31.812,79.88370567533924
mp-bikq,BaI2,Orthorhombic,62,16.076,5.955,15.901541442887991
mp-dnd,SnPd,Orthorhombic,62,97.577,39.635,104.72545192649066
mp-bjca,MgH2,Orthorhombic,62,61.574,25.012,66.08752034481772
mp-bjcb,CaH2,Orthorhombic,62,46.806,32.48,79.13527004360952
mp-bjcc,SrH2,Orthorhombic,62,37.591,24.537,60.45687351977277
mp-bjcd,BaH2,Orthorhombic,62,30.008,17.353,43.64584050588115
mp-fhsgi,TiO2,Orthorhombic,62,56.861,17.976,48.786851987971936
mp-dsv,Ca2Si,Orthorhombic,62,36.705,22.286,55.604328290571814
mp-dyk,MnP,Orthorhombic,62,173.538,127.428,307.1134314998102
mp-boeb,Ca5Bi3,Orthorhombic,62,32.168,20.742,51.21759295839517
mp-ebi,DyNi,Orthorhombic,62,78.297,23.865,64.99181137828688
mp-boqa,BaBr2,Orthorhombic,62,21.78,7.82,20.952383816293057
mp-bovu,ZrAs2,Orthorhombic,62,109.701,71.768,176.75809003894022
mp-eeb,Sb2S3,Orthorhombic,62,16.114,8.865,22.473744297026588
mp-eeq,AlPd2,Orthorhombic,62,157.601,52.588,141.9729163461118
mp-brwg,HfAs2,Orthorhombic,62,114.549,75.643,185.98933927114882
mp-bsxn,SrAg,Orthorhombic,62,27.873,13.764,35.4558367271495
mp-bthi,Er2Pt,Orthorhombic,62,76.471,25.794,69.56093197286908
mp-btln,Mg2Hg,Orthorhombic,62,44.345,15.581,41.842432880712714
mp-btrw,YZn3,Orthorhombic,62,72.174,41.301,104.05481809613572
mp-btzq,NaP5,Orthorhombic,62,35.625,19.553,49.58696352864872
mp-nn,SiNi,Orthorhombic,62,164.819,91.069,230.71411619466943
mp-ob,MgB4,Orthorhombic,62,158.697,113.996,275.9210233541834
mp-oz,SiPd,Orthorhombic,62,151.127,53.453,143.44681647048145
mp-ql,FeAs,Orthorhombic,62,160.334,85.376,217.51918375360626
mp-qw,Nd2S3,Orthorhombic,62,74.377,36.021,93.0427133612706
mp-bctdv,Si2Pd9,Orthorhombic,62,163.342,38.309,106.59376740515015
mp-bctnj,PtF6,Orthorhombic,62,7.167,2.458,6.617487123836556
mp-bdbbg,Si3Ru4,Orthorhombic,62,230.632,104.687,272.78707888066907
mp-bdbjj,Fe3C,Orthorhombic,62,218.157,68.482,185.9850489118933
mp-betzr,Si4Rh3,Orthorhombic,62,178.662,88.8,228.53692368266897
mp-bewsu,GePt,Orthorhombic,62,141.112,53.162,141.69244214246442
mp-bfxft,IrF6,Orthorhombic,62,5.619,2.833,7.276162671406806
mp-bfzer,HoF3,Orthorhombic,62,71.076,42.75,106.83141129315801
mp-bghfu,ErNi,Orthorhombic,62,83.503,24.157,66.09714248942352
mp-bghwi,SrBr2,Orthorhombic,62,18.143,8.669,22.43391237440173
mp-bgirc,SrI2,Orthorhombic,62,13.289,6.9190000000000005,17.687327811738555
mp-bgixi,Er5Si4,Orthorhombic,62,79.019,41.354,105.63435185391383
mp-bgjnl,ZrTe,Orthorhombic,62,87.502,45.969,117.35607404814004
mp-bgjym,SnCl2,Orthorhombic,62,7.644,4.523,11.333611655436167
mp-bgkoc,AlAu2,Orthorhombic,62,120.192,30.562,84.5220130388763
mp-bgler,Nb2C,Orthorhombic,62,226.573,118.704,303.16773505773256
mp-bgmix,BaAu,Orthorhombic,62,30.79,13.125,34.47621925209726
mp-bgnqp,TiSe,Orthorhombic,62,106.475,62.14,156.0604575891395
mp-bidxg,U2Se3,Orthorhombic,62,68.88,35.78,91.4971438000165
mp-bilyt,AlPd5,Orthorhombic,62,160.22,52.169,141.18348404459968
mp-bipys,CuN6,Orthorhombic,62,10.145,9.142,21.090792884756297
mp-bixpb,Fe3C,Orthorhombic,62,180.669,62.54,168.21083115125873
mp-bjkld,Al3Ni,Orthorhombic,62,112.917,62.713,158.74966220881575
mp-bkfik,SnRh2,Orthorhombic,62,176.402,53.156,144.9123095394274
mp-bkkxb,La3Co,Orthorhombic,62,32.741,12.416,33.06799866231618
mp-bpas,CrBr3,Trigonal,148,6.419,4.002,9.940218496066038
mp-eey,Cr2Se3,Trigonal,148,55.481,30.395,77.10454767372153
mp-bsxp,Sr3Ag2,Trigonal,148,21.352,9.351,24.47944975274838
mp-bghnc,CrCl3,Trigonal,148,8.799,5.642,13.9453672711383
mp-bghsv,Ti3Ni4,Trigonal,148,156.786,39.688,109.79932184940184
mp-bqybn,Sc2O3,Trigonal,148,138.896,69.54,178.78330857128753
mp-bqyia,Al2O3,Trigonal,148,187.289,110.963,277.9890072722679
mp-msv,Te4Mo3,Trigonal,148,32.683,13.203,34.90834179160824
mp-oqi,Ir3Se8,Trigonal,148,83.125,55.304,135.79637914001293
mp-bminb,Fe3N,Trigonal,149,201.279,93.123,242.04163632489667
mp-bqwvt,Zr2O,Trigonal,149,153.477,76.375,196.5258452308655
mp-pfx,BaC2,Monoclinic,15,40.469,19.114,49.54220503696956
mp-pjq,Ta2O5,Monoclinic,15,126.687,71.615,180.7804832335568
mp-pnt,SrC2,Monoclinic,15,49.739,21.069,55.38657857369367
mp-raq,MoP4,Monoclinic,15,135.442,96.673,234.27931306821682
mp-rhk,SiO2,Monoclinic,15,110.695,59.798,152.02000722154315
mp-cip,CaC2,Monoclinic,15,58.177,23.224,61.489842643675246
mp-cnp,Sb2O5,Monoclinic,15,125.537,75.478,188.62997147464327
mp-crz,SbO2,Monoclinic,15,82.545,56.104,137.2228858329026
mp-bfof,KO2,Monoclinic,15,16.347,9.297,23.446167695155818
mp-dok,NaSi,Monoclinic,15,17.961,10.842,27.077612329084594
mp-boee,BeP2,Monoclinic,15,89.366,72.774,171.71164412448073
mp-edm,Fe5C2,Monoclinic,15,230.615,87.878,233.92136018816936
mp-bpve,P2Pd,Monoclinic,15,110.324,58.503,149.14581102253032
mp-bwes,Al2O3,Monoclinic,15,197.042,111.213,280.80839525357413
mp-ss,NiP2,Monoclinic,15,113.025,67.142,168.13309376515502
mp-bftfh,SiO2,Monoclinic,15,14.613,32.297,55.78969934065356
mp-bftlh,BiO2,Monoclinic,15,51.48,28.904,73.04193908718038
mp-bfunt,SiO2,Monoclinic,15,263.994,193.946,467.38222559456676
mp-bgicp,P3N5,Monoclinic,15,148.829,88.001,220.53611579867086
mp-bgmaj,FeP4,Monoclinic,15,135.276,114.39,267.71083422718937
mp-kuw,CrP4,Monoclinic,15,125.759,101.107,239.21376324668046
mp-leh,BaSe2,Monoclinic,15,30.263,12.256,32.3948755592217
mp-bqznx,MnP4,Monoclinic,15,130.329,97.194,233.52971835036595
mp-uwu,PdF3,Trigonal,150,35.031,20.591,51.65263588841858
mp-eijno,Na2O,Trigonal,150,46.967,23.696,60.8539055268322
mp-bqnb,V6C5,Trigonal,151,237.852,175.41,422.39475287018854
mp-xpn,BeF2,Trigonal,152,21.345,27.825,58.18987181580666
mp-lu,B2O3,Trigonal,152,33.164,36.019,79.33530889743268
mp-sv,Ge4Ir,Trigonal,152,108.621,58.027,147.7677379014822
mp-bfmrw,TiO2,Trigonal,152,21.691,18.21,42.68503764273622
mp-yk,HgS,Trigonal,152,9.306,7.553,17.834116940599362
mp-kjg,SiO2,Trigonal,152,29.797,46.637,91.94271915340958
mp-bcf,GeO2,Trigonal,152,37.861,28.881,69.07830658271563
mp-ip,GeO2,Trigonal,154,32.439,27.681,64.65299949599193
mp-kgo,SiO2,Trigonal,154,33.568,46.226,95.04818152861905
mp-nrw,HgS,Trigonal,154,7.841,7.541,17.13111090007726
mp-dbc,Ni3Se2,Trigonal,155,105.255,47.072,122.89559840920303
mp-bszy,SnAu5,Trigonal,155,114.725,21.951,61.904798552957175
mp-ny,Ni3S2,Trigonal,155,126.928,55.258,144.76607027763382
mp-bfcna,SiO2,Trigonal,155,63.433,31.521,81.1254365566676
mp-bgjwp,Mg3Hg,Trigonal,155,40.607,6.856,19.472122663723898
mp-cdpga,MgPd5,Trigonal,155,140.811,37.371,103.00091110342669
mp-cdsxn,Sm5Mg,Trigonal,155,35.469,16.772,43.46499494231971
mp-cdwot,Li5Mg,Trigonal,155,17.319,8.46,21.826119469685686
mp-bgjdz,SiC,Trigonal,156,213.208,188.038,435.95193827431973
mp-bgjfk,SiC,Trigonal,156,213.229,187.484,434.9683832291026
mp-bgjgy,SiC,Trigonal,156,213.095,188.173,436.141204647245
mp-bgjil,SiC,Trigonal,156,213.254,186.767,433.69233065264496
mp-bglki,CuI,Trigonal,156,8.869,6.081,14.849226046255506
mp-bglvx,CdI2,Trigonal,156,6.7940000000000005,3.143,8.169261551540913
mp-bgmjn,SiC,Trigonal,156,213.212,187.261,434.56032732976416
mp-bgmqz,SiC,Trigonal,156,213.186,187.274,434.57165987286413
mp-bhczy,SiC,Trigonal,156,213.198,187.685,435.3145669961404
mp-bsdqu,MgO,Trigonal,156,115.534,50.63,132.5305558968059
mp-ceqef,SnGe,Trigonal,156,4.869,2.614,6.651651704314499
mp-wz,TiNi,Trigonal,157,151.359,38.641,106.83183498674697
mp-ckxua,Bi2O3,Trigonal,159,33.361,27.707,65.0989830424916
mp-dij,Si3N4,Trigonal,159,222.026,133.615,333.8706677562515
mp-bgjnn,Si3N4,Trigonal,159,190.714,69.364,185.59167500226027
mp-bmgnh,Ge3N4,Trigonal,159,163.42,90.833,229.903577809404
mp-ove,TaS2,Trigonal,160,27.546,18.066,44.4750389656816
mp-qug,GaSe,Trigonal,160,14.697,10.32,25.087893256878207
mp-txo,ZnS,Trigonal,160,68.983,33.527,86.558065540844
mp-dcdgv,TiO2,Trigonal,160,86.709,32.379,86.384403735308
mp-chn,NiS,Trigonal,160,120.17,60.39,155.17604347826088
mp-xdz,NiSe,Trigonal,160,109.537,46.377,121.92384033889086
mp-bhot,InSe,Trigonal,160,11.006,7.042,17.412338192710934
mp-bigw,ZrCl2,Trigonal,160,15.281,12.215,28.935146491439593
mp-bfodh,ZnS,Trigonal,160,68.961,32.743,84.80678309949673
mp-bfqdn,ZnS,Trigonal,160,68.882,33.044,85.46552326755393
mp-bqzpb,Al2O3,Trigonal,160,212.651,103.635,267.45683245279054
mp-lfp,MoSe2,Trigonal,160,19.537,14.459,34.793613617079515
mp-lgf,NbSe2,Trigonal,160,20.516,13.817,33.85160416639023
mp-lpi,TaSe2,Trigonal,160,22.878,14.651,36.221050633367355
mp-bkc,GeTe,Trigonal,160,33.016,20.165,50.26220932280876
mp-onl,WS2,Trigonal,160,28.713,22.737,53.966230656894076
mp-jo,Fe2N,Trigonal,162,248.656,92.438,246.73889494111444
mp-bwys,V2N,Trigonal,162,268.043,142.833,363.8672643369006
mp-bghiz,W2C,Trigonal,162,335.85,169.09,434.37235560579273
mp-ebu,Cr2Te3,Trigonal,163,42.043,25.838,64.33477864273166
mp-bfrem,SiO2,Trigonal,163,134.058,71.266,181.6154039624873
mp-bqzdf,Al2O3,Trigonal,163,189.101,125.957,309.21638622306205
mp-cfkbh,W2C,Trigonal,164,315.374,155.666,401.01823740683324
mp-cfkbo,V2C,Trigonal,164,218.716,99.627,259.48221413515927
mp-cfxgq,Bi2O3,Trigonal,164,118.12,31.132,85.85341994126985
mp-cfybz,ZrTe2,Trigonal,164,13.477,13.397,30.188049360927405
mp-cfyde,VI2,Trigonal,164,9.164,5.8,14.36864111498258
mp-cfydq,NbTe2,Trigonal,164,21.331,15.431,37.29890145296132
mp-pce,Ta2N,Trigonal,164,270.475,117.555,308.03806069560164
mp-pdk,NbSe2,Trigonal,164,18.487,14.958,35.342122353342134
mp-cggsh,MoS2,Trigonal,164,15.035,10.803,26.146668544752092
mp-cgnti,WSe2,Trigonal,164,16.447,12.676,30.25524530370705
mp-chcyp,MgCd,Trigonal,164,40.188,8.885,24.82547891447597
mp-bor,Al3Ni2,Trigonal,164,131.24,87.345,214.45837922110317
mp-qcs,Al3Cu2,Trigonal,164,97.903,49.461,126.99659803304485
mp-qdh,Al3Pd2,Trigonal,164,127.891,63.127,162.6239400470009
mp-qdl,Al3Pt2,Trigonal,164,150.267,77.09,197.49673184426334
mp-qlf,Ac2O3,Trigonal,164,101.296,35.758,95.98017144909701
mp-qwj,Ga3Ni2,Trigonal,164,118.283,64.945,164.69269430958994
mp-bta,SnS2,Trigonal,164,13.762,10.862,25.79860389660198
mp-btq,ZrS2,Trigonal,164,19.062,13.618,32.996396305293494
mp-but,Ti2O,Trigonal,164,183.19,110.136,275.2473443624888
mp-tij,Y2O3,Trigonal,164,140.624,43.654,118.6812355571977
mp-tiq,Lu2O3,Trigonal,164,155.662,47.365,129.00990893378258
mp-cbn,Ag2F,Trigonal,164,78.406,18.365,51.10490730845521
mp-cna,TaS2,Trigonal,164,21.703,15.8,38.14367499289325
mp-cvj,TiTe2,Trigonal,164,20.685,14.171,34.60950613963739
mp-cxs,La2O3,Trigonal,164,116.022,39.07,105.38109568730368
mp-dbj,Pr2O3,Trigonal,164,121.654,39.845,107.76921513214938
mp-dbw,ZrSe2,Trigonal,164,15.882,11.72,28.21873395546272
mp-bfqn,In3Ni2,Trigonal,164,105.586,55.446,141.55917777347906
mp-bfrc,Ga3Pt2,Trigonal,164,130.246,34.54,95.20424653991037
mp-dey,TiS2,Trigonal,164,18.003,15.707,36.504648703310565
mp-bhsl,Fe2Si,Trigonal,164,237.179,122.609,313.76104434835145
mp-djx,Te2Ir,Trigonal,164,48.777,20.99,55.07057135685299
mp-bhvx,VCl2,Trigonal,164,10.488,9.518,21.92238192377141
mp-bhwa,FeBr2,Trigonal,164,10.581,5.828,14.771888211652607
mp-dle,Nb2C,Trigonal,164,223.238,61.973,170.17188656625035
mp-biin,MgI2,Trigonal,164,9.165,4.314,11.186780156559463
mp-bijg,BiTe,Trigonal,164,23.047,14.843,36.65912065393408
mp-dve,NiTe2,Trigonal,164,57.823,22.605,59.99673712475903
mp-dxu,Mg3Sb2,Trigonal,164,42.369,17.743,46.70886091128754
mp-ear,Ce2O3,Trigonal,164,120.983,47.005,124.84633211287121
mp-bpll,MnI2,Trigonal,164,7.357,4.455,11.120369260348337
mp-bppk,TiCl2,Trigonal,164,12.683,6.039,15.63540494011976
mp-bpws,MnBr2,Trigonal,164,9.387,6.232,15.308291105748262
mp-bshy,Nb3Cl8,Trigonal,164,12.959,8.72,21.367361808517348
mp-bslb,CaI2,Trigonal,164,3.823,2.514,6.186025745548164
mp-btnl,Li13Sn5,Trigonal,164,29.762,24.659,57.967531896967834
mp-bwqx,HfTe2,Trigonal,164,11.738,10.089,23.52652446857824
mp-pj,Te2Pt,Trigonal,164,45.176,28.839,71.3371660734819
mp-bdbcf,In3Pd2,Trigonal,164,88.536,35.851,94.7622636046693
mp-bfeck,Pm2O3,Trigonal,164,129.418,42.722,115.46109798225426
mp-bghni,BaSn2,Trigonal,164,32.687,17.29,44.09518833820253
mp-bgjti,Mg3Bi2,Trigonal,164,36.731,14.436,38.291556892858004
mp-bgkoz,Bi2Pt,Trigonal,164,35.201,11.831,31.917223964098984
mp-bgktw,TiPt3,Trigonal,164,234.145,105.465,275.0921176197549
mp-bglbw,Al3Pt2,Trigonal,164,122.683,18.02,51.53671737435536
mp-bglju,Cr3Te4,Trigonal,164,29.287,16.95,42.62655494175229
mp-bglpb,MgCl2,Trigonal,164,9.627,6.587,16.09105224427653
mp-bgmvg,FeCl2,Trigonal,164,8.913,5.459,13.600366575563697
mp-bgmwg,FeI2,Trigonal,164,10.949,5.833,14.860125465356775
mp-xt,PtO2,Trigonal,164,41.116,30.048,72.48612813893452
mp-zp,SnSe2,Trigonal,164,11.592,9.691,22.736920592799155