material_id,formula_pretty,symmetry.crystal_system,symmetry.number,bulk_modulus.vrh,shear_modulus.vrh,youngs_modulus_vrh
mp-cdvit,Sr3CdO4,Cubic,221,89.762,54.665,136.32172016755618
mp-cdvok,SmPuO3,Cubic,221,121.889,20.41,57.99306980213792
mp-cdvsx,SrTlO3,Cubic,221,98.451,43.398,113.51461244985256
mp-cdvtg,ScSnO3,Cubic,221,112.688,44.097,117.0261345977219
mp-cdvtq,ScH4Pd3,Cubic,221,141.571,20.16,57.739269948951716
mp-cdwsu,KBiO3,Cubic,221,86.685,65.445,156.85990299539168
mp-cdxar,PbAuO3,Cubic,221,132.88,48.968,130.83280584797413
mp-cdxms,HoGeO3,Cubic,221,142.29,64.149,167.30483115724647
mp-cdyct,LiBeO3,Cubic,221,112.446,16.251,46.512305286646374
mp-cdyzk,EuAsO3,Cubic,221,164.961,78.314,202.84265581641216
mp-cdzzk,CsCaO3,Cubic,221,40.397,10.838,29.844989918881453
mp-ceadx,CsKO3,Cubic,221,38.067,33.016,76.8347449547267
mp-ceall,BOsO3,Cubic,221,286.217,59.98,168.19121163992943
mp-ceaoi,CaBO3,Cubic,221,195.881,59.159,161.2442705974935
mp-ceasf,BaSr3O4,Cubic,221,79.071,49.114,122.06825708368405
mp-cebzd,Li3ClO,Cubic,221,51.628,38.236,91.99686139188069
mp-cebze,Na3BrO,Cubic,221,31.663,21.887,53.36487156473527
mp-cehwe,LaOsN3,Cubic,221,243.043,92.446,246.13112448893892
mp-otc,Y3TlC,Cubic,221,77.491,63.955,150.46969970785486
mp-otg,Ti3TlN,Cubic,221,153.716,40.969,112.87870603066617
mp-ceuoh,TlCuCl3,Cubic,221,39.029,17.428,45.50999299706352
mp-ceuqe,RbCuBr3,Cubic,221,30.662,13.156,34.52952624070305
mp-ceuul,CsPdBr3,Cubic,221,33.583,17.108,43.87386134043798
mp-ceuyo,CuAgF3,Cubic,221,86.522,21.339,59.15393681849736
mp-cevdw,BaHfO3,Cubic,221,159.196,102.329,252.8177434977764
mp-exn,CaPd3O4,Cubic,223,161.478,54.739,147.54503318600894
mp-cfade,Li2SnIr,Cubic,225,85.092,24.121,66.11573205152524
mp-cffsn,Sm2InHg,Cubic,225,56.894,20.934,55.94089723196393
mp-cfggn,LaPrIn2,Cubic,225,51.388,22.228,58.2808300603202
mp-cfiwj,GaCo2Ni,Cubic,225,198.722,53.674,147.72227263941892
mp-cfjbt,CrInCu2,Cubic,225,93.374,29.914,81.08319202931274
mp-cfjlw,CrCo2Si,Cubic,225,222.218,94.391,248.05157795136952
mp-cfjnx,CrCo2As,Cubic,225,187.113,76.573,202.144235789576
mp-cfyay,CrCo2Bi,Cubic,225,137.255,56.721,149.56085709071348
mp-cfyba,CrCo2Sb,Cubic,225,173.777,82.553,213.80317102125576
mp-pbp,LiSiNi2,Cubic,225,149.838,65.605,171.74885397354785
mp-cgaga,Ca6Ge2O,Cubic,225,41.392,37.095,85.68760756738656
mp-cgiyq,CaZrF6,Cubic,225,56.574,22.566,59.753286507738395
mp-per,TiNi2Sb,Cubic,225,137.552,27.593,77.59075210619444
mp-pmw,NaPF6,Cubic,225,23.499,10.027,26.33525727733346
mp-pno,Rb2SiF6,Cubic,225,17.072,8.245,21.305187601957588
mp-pva,Li2CdGe,Cubic,225,40.135,20.058,51.58120266547062
mp-cjlmm,Ca2H6Ru,Cubic,225,56.915,41.307,99.78161557070906
mp-qce,HfAlAu2,Cubic,225,142.057,22.112,63.06391153802397
mp-qcf,ScAlAu2,Cubic,225,114.629,18.822,53.535818912682075
mp-qcp,AlCrCo2,Cubic,225,199.303,96.223,248.65269591518617
mp-qcq,AlFeCo2,Cubic,225,187.706,103.489,262.2678071277379
mp-qcr,AlCrNi2,Cubic,225,160.697,41.844,115.50640329811905
mp-qct,HfAlCu2,Cubic,225,134.159,56.709,149.1164900040507
mp-qcx,MnAlPd2,Cubic,225,145.343,43.389,118.38643280602732
mp-qda,MnAlRh2,Cubic,225,185.161,94.704,242.72922420165278
mp-qdb,Mn2AlV,Cubic,225,185.386,96.779,247.30294844066117
mp-qde,ScAlNi2,Cubic,225,129.687,57.619,150.5594995903107
mp-qdf,AlVNi2,Cubic,225,167.301,55.002,148.70939642847523
mp-qqc,PrMg2Ag,Cubic,225,45.818,17.459,46.47400901150968
mp-qqd,SmMg2Ag,Cubic,225,47.298,17.019,45.58898238658888
mp-qqe,MgZnAg2,Cubic,225,75.529,24.529,66.39902502827378
mp-qsj,ZrCdCu2,Cubic,225,113.193,50.865,132.7157223699173
mp-quy,ScGaCu2,Cubic,225,107.905,47.008,123.14203370171259
mp-qve,ZrZnCu2,Cubic,225,121.262,42.491,114.14107315452264
mp-qwm,ScGaNi2,Cubic,225,128.473,50.343,133.5808219876905
mp-qzy,Li2ZnSn,Cubic,225,37.548,27.734,66.76406622120275
mp-raa,LuNi2Sn,Cubic,225,100.82,40.276,106.62911652117081
mp-rau,LiAl2Ir,Cubic,225,135.916,52.607,139.78602840851082
mp-rbt,NbAlRu2,Cubic,225,230.476,116.78,299.718495139865
mp-rrn,LiAlAg2,Cubic,225,71.27,32.565,84.7820109589041
mp-rym,Li2MgIn,Cubic,225,29.856,20.946,50.92815375427548
mp-spw,Li2CdSn,Cubic,225,35.899,23.104,57.06909323323217
mp-tpu,CeMgZn2,Cubic,225,51.635,33.459,82.54708535070395
mp-tsk,LiGeRh2,Cubic,225,168.2,90.626,230.48327660418062
mp-tvg,LiIn2Rh,Cubic,225,90.326,37.101,97.89912436095938
mp-upe,LiCo2Ge,Cubic,225,154.032,97.165,240.85118311486053
mp-upf,LiNi2Sn,Cubic,225,112.914,29.525,81.47369340722899
mp-uvw,Rb2PdF6,Cubic,225,12.393,8.333,20.421818882931976
mp-xgu,KNa2Sb,Cubic,225,18.878,12.629,30.97891165557368
mp-yev,LiNi2Ge,Cubic,225,132.644,46.128,124.00896700445887
mp-yfe,ZnNi2Ge,Cubic,225,150.684,34.806,96.95304531506105
mp-yjy,TiAlAu2,Cubic,225,138.455,26.152,73.80888264778028
mp-ykk,AlCrCu2,Cubic,225,119.908,48.944,129.24670972035983
mp-ykl,AlCrFe2,Cubic,225,223.142,92.876,244.68101556600934
mp-ykn,ScAlCu2,Cubic,225,106.697,52.175,134.5872139142441
mp-ykr,HfAlPd2,Cubic,225,156.936,7.228,21.356133579897747
mp-ylo,ScAlPd2,Cubic,225,129.942,41.369,112.20013075754588
mp-ymm,ZrTiF6,Cubic,225,84.573,30.321,81.25278621673002
mp-ytr,CrInCo2,Cubic,225,169.302,60.198,161.45771929787506
mp-bdjm,MnCo2Ge,Cubic,225,197.347,93.978,243.31175564233644
mp-bdkn,ZrNi2Sn,Cubic,225,146.647,45.056,122.61095447600707
mp-bdlo,ZrNi2Sb,Cubic,225,143.863,28.872,81.18497076625383
mp-bdmn,MgInNi2,Cubic,225,106.537,41.076,109.19446586098198
mp-bdne,YInCu2,Cubic,225,84.23,39.817,103.19094308854147
mp-bdnv,TiFe2Sn,Cubic,225,183.277,108.178,271.1799591707712
mp-bduv,TiGaCo2,Cubic,225,182.718,87.666,226.73619214872136
mp-bdya,MnGaNi2,Cubic,225,157.338,37.296,103.69461120339282
mp-bdzl,LiIn2Pt,Cubic,225,81.018,28.966,77.64468234688627
mp-bedf,LiGa2Pt,Cubic,225,103.688,34.754,93.78388275913917
mp-bege,MnNi2Sn,Cubic,225,141.181,41.266,112.80714511552057
mp-behb,CaPbF6,Cubic,225,51.78,19.973,53.09256849178326
mp-beht,MnSnPd2,Cubic,225,129.866,28.853,80.59059073105333
mp-beid,LaInCu2,Cubic,225,70.523,26.891,71.57555119097543
mp-bejh,ScInPt2,Cubic,225,141.942,29.805,83.5659377654286
mp-belb,LiGa2Ru,Cubic,225,115.246,46.408,122.74771975743727
mp-belu,VCo2Si,Cubic,225,216.418,94.021,246.38327806262825
mp-beri,HfCo2Sn,Cubic,225,161.751,81.16,208.59231769044848
mp-berw,ZrInNi2,Cubic,225,140.627,53.067,141.41311697491093
mp-beub,LiIn2Pd,Cubic,225,67.719,18.833,51.705785589440964
mp-bevo,MnCo2Sn,Cubic,225,166.928,81.836,211.02344284782532
mp-bewm,VNi2Sn,Cubic,225,122.027,22.62,63.91096668133089
mp-bexu,DyInAg2,Cubic,225,64.011,18.398,50.368383945331246
mp-bfeh,ScInCu2,Cubic,225,94.727,47.368,121.8017753755855
mp-bfih,MnGaCo2,Cubic,225,186.181,85.891,223.33000809857955
mp-bfil,TaGaNi2,Cubic,225,192.999,39.868,111.89897180806801
mp-bfjv,InFeCo2,Cubic,225,160.068,63.718,168.76117424189496
mp-bfkt,Mn2VGa,Cubic,225,187.236,81.286,213.02996523140186
mp-bfnh,ScInNi2,Cubic,225,128.198,59.957,155.61163370231986
mp-bftr,TiCo2Sn,Cubic,225,165.425,77.267,200.57300297972947
mp-bftt,VCo2Sn,Cubic,225,178.311,71.09,188.25219655029593
mp-bgjr,VGaFe2,Cubic,225,222.851,122.941,311.53454494790867
mp-bgph,MnNi2Ge,Cubic,225,160.744,29.281,82.81452392412314
mp-bgwr,MnCu2Sn,Cubic,225,103.969,30.817,84.13800625868045
mp-bgzs,FeCo2Ge,Cubic,225,183.305,58.409,158.4023574690461
mp-bhfz,TiInNi2,Cubic,225,153.635,50.534,136.62258805057886
mp-bhhd,YInAu2,Cubic,225,89.598,21.208,58.97114315073689
mp-bhhn,ZrCo2Sn,Cubic,225,153.951,75.173,193.95080816757476
mp-bhlq,Mn2SnW,Cubic,225,219.188,105.854,273.5294936299642
mp-bhob,MnInCu2,Cubic,225,103.816,24.622,68.45424455619366
mp-bhon,TbInCu2,Cubic,225,90.141,43.172,111.68578984996572
mp-bhpo,YPd2Pb,Cubic,225,93.034,23.095,63.98998689596522
mp-bhqb,TiInCu2,Cubic,225,118.564,46.141,122.52839790659301
mp-bhqh,MnInNi2,Cubic,225,235.971,89.09,237.39422249351634
mp-bhso,VGaCo2,Cubic,225,199.274,88.046,230.23017174733332
mp-bhyp,K2ReCl6,Cubic,225,11.602,6.545,16.52718942709971
mp-bhzr,Rb2TeCl6,Cubic,225,9.584,5.213,13.238702428971001
mp-bibl,K2ReBr6,Cubic,225,11.063,5.229,13.551872637826019
mp-bica,K2SeBr6,Cubic,225,11.09,5.006,13.053842094262725
mp-bicy,Cs2PtI6,Cubic,225,7.331,3.998,10.14905321072679
mp-bidf,K2PdCl6,Cubic,225,12.406,6.418,16.42211412595105
mp-bipj,Rb2TeBr6,Cubic,225,9.056,4.79,12.216163714875773
mp-biqg,Cs2PtCl6,Cubic,225,8.616,4.775,12.091323515005064
mp-biqz,Cs2PbCl6,Cubic,225,8.082,4.508,11.403731793837379
mp-birm,BaBiO3,Cubic,225,109.77,56.631,144.96377381516862
mp-bitv,K2SnCl6,Cubic,225,11.298,5.661,14.552440955631399
mp-biub,K2TeBr6,Cubic,225,10.176,4.976,12.835792699414151
mp-biuj,K2PtCl6,Cubic,225,12.754,6.625,16.941592220464724
mp-bjfo,Mg2FeH6,Cubic,225,76.609,61.863,146.22840379512496
mp-bjyi,Sr2H6Ru,Cubic,225,48.381,32.026,78.71043553894869
mp-boke,K2MnCl6,Cubic,225,11.197,6.094,15.47462925538617
mp-bokp,CaTiF6,Cubic,225,58.073,25.205,66.05809574073332
mp-bowu,K2TcCl6,Cubic,225,11.33,5.731,14.712370534477984
mp-bowy,Cs2SnI6,Cubic,225,7.069,3.906,9.895417751762038
mp-bozb,K2PtBr6,Cubic,225,12.515,5.95,15.408167605471894
mp-bpeh,Rb2TiCl6,Cubic,225,9.65,5.044,12.88672706948285
mp-bpei,Cs2TiCl6,Cubic,225,9.126,4.099,10.695659243256982
mp-bpek,Cs2SeCl6,Cubic,225,8.965,5.067,12.791154965271259
mp-bpel,Rb2ZrCl6,Cubic,225,10.523,5.344,13.711001760897247
mp-bpen,Tl2TeCl6,Cubic,225,11.525,5.702,14.684309903915388
mp-bpeo,Tl2PtCl6,Cubic,225,13.744,6.203,16.175530473279224
mp-bpep,K2OsBr6,Cubic,225,12.514,5.247,13.810760288859283
mp-bpet,K2TiCl6,Cubic,225,12.238,5.72,14.846873733327048
mp-bpgk,Cs2GeCl6,Cubic,225,8.703,4.521,11.561095886385896
mp-bpoe,Rb2PdBr6,Cubic,225,10.289,4.884,12.65036737433918
mp-bppe,Rb2PtI6,Cubic,225,8.577,3.938,10.24591438875594
mp-bpqn,Rb2PdCl6,Cubic,225,10.81,6.046,15.28785060817133
mp-eip,LiAg2Sn,Cubic,225,59.483,23.975,63.40623802019524
mp-brms,Cs2HfI6,Cubic,225,6.99,4.16,10.41407083167529
mp-brpx,Rb2WBr6,Cubic,225,9.727,4.388,11.443256695165182
mp-brsu,Tl2WCl6,Cubic,225,14.578,5.2620000000000005,14.090638501102134
mp-brvt,LiGePd2,Cubic,225,121.813,37.662,102.4296413405077
mp-ekx,Li2MgTl,Cubic,225,27.001,14.225,36.30027959213677
mp-bsmg,Cs2PtBr6,Cubic,225,8.763,4.908,12.40757880565439
mp-bsmn,CuNi2Sb,Cubic,225,147.435,26.623,75.33450347388086
mp-bsmy,Li2GePd,Cubic,225,62.413,22.035,59.14463380544168
mp-bssp,Rb2WCl6,Cubic,225,11.06,4.8870000000000005,12.778836787768935
mp-bswy,ErInAg2,Cubic,225,77.665,25.82,69.73240615883934
mp-bsxa,HoInAg2,Cubic,225,77.054,26.089,70.32958571200889
mp-bsxf,ScInAg2,Cubic,225,83.809,26.91,72.92491371969949
mp-bsyg,DyInAu2,Cubic,225,90.936,22.045,61.1903459690083
mp-bszb,ScInAu2,Cubic,225,101.827,24.732,68.63893388812676
mp-ena,K2SiF6,Cubic,225,19.56,10.152,25.964058577405854
mp-btfb,GaFeCo2,Cubic,225,190.304,88.288,229.39022446601942
mp-btff,TaGaCo2,Cubic,225,195.874,90.532,235.3385583687481
mp-btfu,CrGaFe2,Cubic,225,204.598,105.307,269.6567161970293
mp-btgk,HoInCu2,Cubic,225,86.981,41.739,107.94992642773603
mp-btgq,CuNi2Sn,Cubic,225,149.253,27.073,76.5882211413721
mp-btgt,CuSnRh2,Cubic,225,177.039,63.304,169.6869587447281
mp-btiu,LiMg2Ga,Cubic,225,38.321,26.698,64.99916365125193
mp-btjd,TiGaNi2,Cubic,225,166.368,48.916,133.64934453487098
mp-btje,VGaNi2,Cubic,225,167.969,38.51,107.32771227671698
mp-btjh,ScGaPd2,Cubic,225,127.531,35.179,96.65012839778635
mp-btlv,MgCdAg2,Cubic,225,69.74,25.347,67.82411004105438
mp-btlz,HoSnPd2,Cubic,225,110.96,20.177,57.07168893408146
mp-btna,Li2MgPb,Cubic,225,36.254,14.747,38.95861550170432
mp-btnb,LiMg2Tl,Cubic,225,32.073,13.48,35.47066390760171
mp-btnp,MgNi2Sb,Cubic,225,113.99,41.733,111.58187981329309
mp-btnq,MgNi2Sn,Cubic,225,116.057,51.674,134.98771964636296
mp-btph,LiAl2Pd,Cubic,225,104.819,56.274,143.19617095414196
mp-btpj,LiAl2Pt,Cubic,225,124.378,59.706,154.41044222345442
mp-btpl,LiAl2Rh,Cubic,225,119.342,55.198,143.47413858827173
mp-bucv,ScAlAg2,Cubic,225,93.143,31.362,84.59175746401922
mp-bucw,Cd2AgAu,Cubic,225,82.477,13.904,39.492765500220024
mp-bucx,Zn2AgAu,Cubic,225,102.933,25.725,71.24021841482225
mp-bucz,CeCd2Ag,Cubic,225,53.25,17.503,47.3239536143253
mp-budl,MnAlFe2,Cubic,225,204.228,131.417,324.621630241056
mp-budn,TiAlFe2,Cubic,225,184.183,85.502,222.13292322087108
mp-buei,LiIn2Ir,Cubic,225,103.987,40.176,106.77672442259687
mp-bujj,ScInPd2,Cubic,225,118.985,41.443,111.3957856088635
mp-bukh,K2TaCl6,Cubic,225,12.244,4.805,12.747472855526397
mp-eym,TaAlCo2,Cubic,225,203.111,103.041,264.4100500004211
mp-byxu,AgPF6,Cubic,225,25.022,4.15,11.797764340537263
mp-fdg,FeSiRu2,Cubic,225,232.733,118.341,303.5695784370637
mp-feo,HfGaNi2,Cubic,225,128.242,22.94,64.94739154111454
mp-feu,NbNi2Sn,Cubic,225,156.967,39.414,109.10962061079923
mp-fgd,NbGaNi2,Cubic,225,186.563,37.235,104.73705152582238
mp-fhm,MnAlCu2,Cubic,225,125.381,47.176,125.7556748078872
mp-fho,HfGaCo2,Cubic,225,172.836,77.795,202.93707994090255
mp-fjj,MnAlCo2,Cubic,225,188.169,102.715,260.7078446379166
mp-fka,Nb6Si7Ni16,Cubic,225,218.334,105.841,273.35232110435396
mp-fki,Zn2CuAu,Cubic,225,112.628,18.83,53.50804050303604
mp-fkr,TiCo2Si,Cubic,225,206.714,96.955,251.53863818981247
mp-ccyz,AgAsF6,Cubic,225,25.367,5.244,14.717818329338005
mp-fns,ZrAlCu2,Cubic,225,127.356,49.2,130.761468043073
mp-fnw,TiNi2Sn,Cubic,225,159.419,36.868,102.68796355835961
mp-fpv,ScCo2Sn,Cubic,225,137.52,75.57,191.61181980210188
mp-cflz,CaTa2O6,Cubic,225,203.358,107.446,274.0690615062994
mp-fuj,ZrAlCo2,Cubic,225,162.789,79.114,204.25353538532568
mp-fvq,TmSnPd2,Cubic,225,113.153,28.127,77.92432214230139
mp-fzr,Cs2SiF6,Cubic,225,16.017,6.5760000000000005,17.353142731616234
mp-glw,NbGaCo2,Cubic,225,193.763,82.303,216.28573837689424
mp-gqu,MnCo2Si,Cubic,225,218.693,111.468,285.83974911764363
mp-gsm,ScNi2Sn,Cubic,225,126.056,50.791,134.3312360015759
mp-gtc,ErInCu2,Cubic,225,88.491,42.728,110.41298059383324
mp-gvk,TiCo2Ge,Cubic,225,188.455,84.07,219.5611672453748
mp-gwy,MnRh2Pb,Cubic,225,151.048,28.127,79.44950737526257
mp-hbn,TiAlCu2,Cubic,225,134.483,58.316,152.85393144131757
mp-hdd,NbAlNi2,Cubic,225,181.822,49.39,135.86766750272335
mp-hds,HfNi2Sn,Cubic,225,153.406,48.08,130.59631224203125
mp-hgj,ScSnPd2,Cubic,225,123.983,34.491,94.69215352081488
mp-hgz,LiGa2Rh,Cubic,225,103.896,33.902,91.72875293845308
mp-hhi,MnAlNi2,Cubic,225,158.539,52.165,141.02732267299757
mp-hip,AlVCo2,Cubic,225,195.177,101.019,258.46517845313525
mp-hjg,LuInCu2,Cubic,225,89.584,42.279,109.59581978645217
mp-hjy,MnSnRh2,Cubic,225,169.635,39.345,109.56425294117646
mp-bcsqr,Cs2PdF6,Cubic,225,11.305,6.937,17.277123886223443
mp-bcufd,MnGePd2,Cubic,225,134.593,22.932,65.0988141482174
mp-hnh,NaLi2Sb,Cubic,225,29.136,22.606,53.88255807442689
mp-hqb,NbAlCo2,Cubic,225,195.157,94.077,243.15878466421796
mp-hql,LiGa2Pd,Cubic,225,83.371,20.021,55.611426621602604
mp-hsv,HfAlCo2,Cubic,225,172.038,89.886,229.6605099207921
mp-hzo,MnCo2Sb,Cubic,225,174.535,76.297,199.78008417208144
mp-hzz,TiAlCo2,Cubic,225,179.963,98.873,250.70579541519373
mp-beugb,Cs2TeI6,Cubic,225,7.489,3.894,9.956355752816663
mp-ial,LiGa2Ir,Cubic,225,121.949,40.935,110.44697364927653
mp-ibc,FeCo2Si,Cubic,225,200.083,87.106,228.20211998457856
mp-ics,TlPd3O4,Cubic,225,139.649,38.327,105.34372172264331
mp-idf,MnAlAu2,Cubic,225,121.118,15.261,43.93760464323917
mp-ifa,YSnPd2,Cubic,225,107.794,14.252,40.95120986630493
mp-bggxl,LiCu2Ge,Cubic,225,88.21,36.738,96.77845962411403
mp-bghbu,TbInAu2,Cubic,225,89.859,22.082,61.23040242886385
mp-bghir,Li2ZnGe,Cubic,225,42.925,25.919,64.72880444619702
mp-bghxz,LiInAg2,Cubic,225,60.474,20.019,54.08859692912564
mp-bgifl,CrGaCo2,Cubic,225,199.836,78.329,207.83254144580482
mp-bgiln,NdInAu2,Cubic,225,81.431,20.018,55.50571796860516
mp-bgisz,K2SnBr6,Cubic,225,10.429,4.995,12.921991483380191
mp-bgjav,YbInAu2,Cubic,225,66.646,19.356,52.942623984240335
mp-bgjdc,SmInAu2,Cubic,225,85.394,22.155,61.17453529354704
mp-bgjhv,SmInAg2,Cubic,225,72.272,24.328,65.62095239359054
mp-bgjoa,YInPd2,Cubic,225,102.492,30.541,83.34454642222137
mp-bgjpi,K2WCl6,Cubic,225,12.36,5.031,13.289839709339601
mp-bgjpl,LaInAg2,Cubic,225,63.889,17.957,49.25625384975003
mp-bgjts,Rb2SnBr6,Cubic,225,10.022,4.644,12.067977873811582
mp-bgjve,Cs2PdI6,Cubic,225,7.646,3.865,9.922997798753872
mp-bgjyj,K2TeCl6,Cubic,225,10.788,5.438,13.967152425797572
mp-bgmcp,PrInAu2,Cubic,225,78.371,18.309,50.95868453015129
mp-bgmfj,PrInAg2,Cubic,225,67.825,21.183,57.5569655876933
mp-bgmnr,YbNi2Sn,Cubic,225,98.691,48.37,124.73225767398381
mp-bgmwk,Ti2BRh6,Cubic,225,225.583,110.559,285.10072052233687
mp-bgndm,ZrInPt2,Cubic,225,160.728,27.431,77.86342221480922
mp-bgnqm,Rb2MnCl6,Cubic,225,10.441,5.332,13.669150402400764
mp-bgrdx,HfInAu2,Cubic,225,128.33,28.838,80.48518916071411
mp-inc,HfAlNi2,Cubic,225,160.645,37.535,104.46857503801951
mp-iog,AlVFe2,Cubic,225,220.899,137.797,342.22989245016197
mp-bhbnc,CsK2Sb,Cubic,225,12.368,7.769,19.271787667416934
mp-bhcnj,ZrInAu2,Cubic,225,122.347,25.139,70.58271991687491
mp-itt,TaAlNi2,Cubic,225,192.409,53.507,146.90353662082592
mp-bidtt,HfInCu2,Cubic,225,120.211,52.466,137.40752927022334
mp-biqfz,Cs2SnCl6,Cubic,225,7.82,4.029,10.315435992578848
mp-bjjea,TiInAu2,Cubic,225,113.257,16.645,47.602983269550194
mp-bjker,ThInAu2,Cubic,225,99.696,22.021,61.53253426095189
mp-bjlus,ZrInCu2,Cubic,225,115.986,51.305,134.13703641459387
mp-bjtxe,Rb2PdI6,Cubic,225,9.032,3.947,10.335461649969396
mp-bjxwz,Ga2WSe,Cubic,225,100.347,15.888,45.27455115814583
mp-bjxxk,Li2GaSb,Cubic,225,35.3,32.36,74.35825256762621
mp-bjxze,SiTe2Os,Cubic,225,111.294,36.429,98.53599308149096
mp-bjybc,NbRu2Cl,Cubic,225,167.909,24.724,70.70180403481118
mp-bjybh,ReRuCl2,Cubic,225,146.466,20.711,59.336191932781134
mp-bjybp,FeTc2Cl,Cubic,225,169.338,87.129,223.1199147398188
mp-bjydl,KTi2Bi,Cubic,225,53.236,23.084,60.50646864195369
mp-bjyfk,BTe2As,Cubic,225,65.801,8.576,24.656806684176544
mp-bjyfv,BeW2Cl,Cubic,225,180.881,15.248,44.493747689064705
mp-bjyjp,LaCoTc2,Cubic,225,448.872,68.24,194.84613806634735
mp-bkfhw,TiGaFe2,Cubic,225,190.307,102.391,260.46099925888745
mp-bkfsp,FeSnRu2,Cubic,225,200.71,88.857,232.29148483256563
mp-bkiwn,Cs2ZrCl6,Cubic,225,9.79,5.257,13.376679180985935
mp-bkkui,HfInNi2,Cubic,225,145.405,57.313,151.97186559830445
mp-bknpj,Cs2SnBr6,Cubic,225,7.65,4.313,10.892053332355207
mp-bkpew,Mg2H6Os,Cubic,225,76.044,56.035,134.95631040902
mp-bkpir,Rb2H6Pt,Cubic,225,13.624,8.42,20.945117260407365
mp-bkpod,Cs2H6Pt,Cubic,225,11.873,5.377,14.015271953361301
mp-bkppn,K2H6Pt,Cubic,225,15.531,9.309,23.27649656541805
mp-bkrkq,NdMg2Ag,Cubic,225,46.464,17.132,45.77056062967979
mp-bmgmd,AlFe2Mo,Cubic,225,230.256,52.491,146.35182253292595
mp-bmgpg,LiIn2Ru,Cubic,225,95.132,41.998,109.83152905673288
mp-bmgqo,UNi2Sn,Cubic,225,146.821,45.894,124.68994332558181
mp-bnhwr,Na2H6Pt,Cubic,225,22.335,15.848,38.44985359612809
mp-bnhwv,K3ReH6,Cubic,225,25.075,8.757,23.531661248839036
mp-bnrcw,Mg2H6Ru,Cubic,225,75.094,53.259,129.22651284371062
mp-bnrde,Ba2H6Ru,Cubic,225,42.322,21.525,55.214319049639364
mp-bnrdk,Ba2H6Os,Cubic,225,41.59,20.0,51.710989845962565
mp-kql,TiAlNi2,Cubic,225,164.644,62.108,165.51216813178908
mp-ksp,LiSnPd2,Cubic,225,108.005,25.46,70.815553902282
mp-lbl,LiCu2Si,Cubic,225,105.396,55.803,142.2956923473955
mp-mei,CaSnF6,Cubic,225,56.223,22.76,60.161831906346485
mp-mlq,K2HfF6,Cubic,225,15.293,6.037,16.00498052623469
mp-bxajc,AcInTe2,Cubic,225,42.162,17.936,47.12549810970628
mp-bxajv,PrYMg2,Cubic,225,39.202,22.951,57.61026429135511
mp-bxajx,Pr2AgRu,Cubic,225,75.998,22.525,61.49910605582809
mp-bxajz,Pr2IrPd,Cubic,225,91.797,28.342,77.09203532708004
mp-bxako,Pr2HgPb,Cubic,225,53.36,18.268,49.190483324735915
mp-bxakp,Pr2CuIr,Cubic,225,84.313,24.217,66.30298925154065
mp-bxakv,Pr2MgTl,Cubic,225,43.757,17.977,47.43498272003645
mp-bxaky,Pr2ZnIr,Cubic,225,78.497,24.587,66.78785460900191
mp-bxaoa,Pr2CuRu,Cubic,225,78.771,27.35,73.53887974421895
mp-bxaog,Pr2TlCd,Cubic,225,48.605,17.214,46.18919474449331
mp-bxaom,Ho2ZnIn,Cubic,225,60.928,31.772,81.20136348552359
mp-bxapc,LiSc2Ir,Cubic,225,99.243,38.644,102.61322528264752
mp-bxapd,LaHgAu2,Cubic,225,69.273,3.22,9.51260923336445
mp-bxapk,LiLaHg2,Cubic,225,44.988,9.091,25.551859859081596
mp-bxapl,LiZnAg2,Cubic,225,65.489,15.67,43.53749543926803
mp-bxapn,Ti2AlMo,Cubic,225,150.337,40.787,112.21305692784436
mp-bxapo,Er2TlCd,Cubic,225,59.121,24.637,64.89641927227723