material_id,formula_pretty,symmetry.crystal_system,symmetry.number,bulk_modulus.vrh,shear_modulus.vrh,youngs_modulus_vrh
mp-cgipt,ErGa5Co,Tetragonal,123,86.188,52.911,131.76864728148328
mp-cgipx,TiGa5Co,Tetragonal,123,108.798,50.857,132.00298733204153
mp-cgiqj,ScGa5Fe,Tetragonal,123,90.193,54.39,135.86026799479336
mp-cgiqk,ScGa5Co,Tetragonal,123,93.026,50.935,129.22070885086345
mp-cgiqq,TlPd5Se,Tetragonal,123,126.95,33.622,92.68374244822327
mp-cgiqz,TmGa5Co,Tetragonal,123,97.33,52.0,132.41791912555598
mp-cgira,ZnPPd5,Tetragonal,123,157.545,54.705,147.09009941404025
mp-cgird,MgPPd5,Tetragonal,123,144.919,57.259,151.7862288807681
mp-cgirm,GaPPt5,Tetragonal,123,214.19,67.858,184.1292082800791
mp-cgirn,AlPPt5,Tetragonal,123,218.902,74.715,201.24848257022975
mp-cgiro,ZnPPt5,Tetragonal,123,209.307,73.003,196.19866103743058
mp-cgise,TbGa5Co,Tetragonal,123,92.096,54.393,136.3380404438114
mp-cgisj,InAsPd5,Tetragonal,123,144.791,53.252,142.30954727095616
mp-cgism,SnPPd5,Tetragonal,123,154.449,42.415,116.57378176889524
mp-cgisr,GaPPd5,Tetragonal,123,163.164,59.659,159.53318792827474
mp-cgiss,HgPPd5,Tetragonal,123,148.263,45.948,124.93758350399501
mp-cgisw,AlAsPt5,Tetragonal,123,197.309,65.207,176.2096492754902
mp-cgitb,CdAsPt5,Tetragonal,123,183.707,58.167,157.84188367570016
mp-cgitd,TiGa5Ni,Tetragonal,123,101.134,34.363,92.60109477891434
mp-cgito,SiSnPt5,Tetragonal,123,201.214,71.228,191.1310876583638
mp-cgitp,NpGa5Co,Tetragonal,123,100.231,72.274,174.80596847978507
mp-cgitt,TlSiPt5,Tetragonal,123,186.651,54.754,149.63063652439294
mp-cgiuk,GaAsPd5,Tetragonal,123,152.092,58.097,154.6053162121651
mp-cgium,TlPPd5,Tetragonal,123,145.845,47.971,129.69350421004066
mp-cgiur,TlAsPt5,Tetragonal,123,180.729,48.286,133.0122197729617
mp-cgiuu,ZnAsPt5,Tetragonal,123,194.2,67.167,180.67166014894573
mp-cgivi,InSiPt5,Tetragonal,123,198.864,66.434,179.33230187654786
mp-cgivn,YGa5Co,Tetragonal,123,85.957,53.183,132.26983153728935
mp-cgivx,AgPPt5,Tetragonal,123,200.192,52.542,144.945312448899
mp-cgivy,HgPPt5,Tetragonal,123,196.589,52.206,143.88163989139727
mp-pkv,RbAuC2,Tetragonal,123,30.97,15.538,39.93533066538802
mp-pkw,NaAuC2,Tetragonal,123,47.935,23.061,59.621860145266254
mp-pkx,KAuC2,Tetragonal,123,34.812,17.635,45.26207354736179
mp-qsq,TiCdHg2,Tetragonal,123,72.925,27.827,74.06085828582088
mp-ror,TlAsPd5,Tetragonal,123,136.553,48.595,130.32540319342547
mp-crrav,HfTiN2,Tetragonal,123,269.121,169.356,419.97268885319113
mp-shj,AgSbTe2,Tetragonal,123,52.694,18.779,50.35516950599624
mp-sos,AlCuPt2,Tetragonal,123,194.163,83.607,219.33846392862293
mp-txv,FeNiPt2,Tetragonal,123,211.801,92.083,241.28222858859138
mp-xiy,MgPPt5,Tetragonal,123,197.337,75.061,199.8447139334285
mp-bdhk,Ba2Nb5O9,Tetragonal,123,177.267,103.306,259.5069843632648
mp-bdou,SmGa5Co,Tetragonal,123,90.833,53.705,134.58963220867923
mp-benj,YbGa5Co,Tetragonal,123,66.775,50.449,120.90004456203593
mp-bfud,LaIn5Rh,Tetragonal,123,64.429,36.531,92.17251125238231
mp-bfur,U2Ga8Ru,Tetragonal,123,92.095,56.915,141.5794787665066
mp-bhyc,K2PtCl4,Tetragonal,123,12.029,6.6690000000000005,16.886345986528205
mp-bhyy,K2PdCl4,Tetragonal,123,11.845,6.796,17.114823179230353
mp-bodu,K2PdBr4,Tetragonal,123,10.178,5.644,14.290499419536735
mp-bohv,K2PtBr4,Tetragonal,123,10.721,5.618,14.347825679574392
mp-boyn,KCu4S3,Tetragonal,123,47.956,18.881,50.071675549465745
mp-gcsia,KMg6Nb,Tetragonal,123,30.941,18.969,47.25095231322456
mp-geynw,KHfMg6,Tetragonal,123,29.655,17.306,43.46326721306848
mp-geyou,SrMg6Zr,Tetragonal,123,34.536,18.906,47.96544512463881
mp-geypz,RbMg6Zr,Tetragonal,123,25.338,16.268,40.20055109338765
mp-ggulq,KMg6Zr,Tetragonal,123,29.002,17.592,43.89977490965409
mp-girhh,LiMg6Mo,Tetragonal,123,46.099,27.637,69.10182703363988
mp-bsfp,Tl2PdCl4,Tetragonal,123,13.465,6.248,16.233172823360423
mp-bsvz,Ca3BN3,Tetragonal,123,80.701,22.835,62.60055565830497
mp-bswz,TiAgHg2,Tetragonal,123,78.331,28.717,76.76948899548748
mp-btcv,ZnCdPt2,Tetragonal,123,154.491,57.642,153.79816738723696
mp-btgr,ZnCu2Ni,Tetragonal,123,143.323,62.437,163.55999593628022
mp-fmk,FeCuPt2,Tetragonal,123,197.434,71.301,190.9201355418827
mp-cdmw,SrCuO2,Tetragonal,123,108.889,63.36,159.20144851510278
mp-haa,UGa5Co,Tetragonal,123,105.256,75.021,181.85694424356876
mp-hdq,CaCuO2,Tetragonal,123,120.874,63.044,161.1202776449141
mp-heu,HoGa5Co,Tetragonal,123,86.145,53.558,133.0920411355383
mp-bctis,CsCu4Se3,Tetragonal,123,37.252,15.102,39.91247959135411
mp-bctjj,Ba(Cu3As)2,Tetragonal,123,66.243,24.781,66.1004431434835
mp-bctuz,BaNb4O6,Tetragonal,123,183.851,108.317,271.61061861124165
mp-ict,RbAlF4,Tetragonal,123,55.619,28.295,72.57756233602527
mp-ihq,AlTlF4,Tetragonal,123,56.864,24.286,63.7783225197303
mp-iqr,RbCuC2,Tetragonal,123,16.425,14.044,32.78722500355344
mp-bjvbp,FeNiN,Tetragonal,123,214.146,92.873,243.42819993444948
mp-bkkgh,InCuPt2,Tetragonal,123,168.56,60.566,162.2634767221314
mp-bkrca,GaCuPt2,Tetragonal,123,188.8,69.795,186.41401457100417
mp-bmlfg,LiTiCl3,Tetragonal,123,35.091,16.043,41.76435273995186
mp-bqvak,BaCuO2,Tetragonal,123,98.185,54.904,138.83386365782536
mp-bqwra,LiBiS2,Tetragonal,123,60.947,36.004,90.24205301469075
mp-bqwtx,LaUO4,Tetragonal,123,178.775,32.967,93.1737646497755
mp-bqwvj,BaSrO2,Tetragonal,123,75.036,44.502,111.46941377545345
mp-bqwwv,TiOF,Tetragonal,123,188.024,94.772,243.41831260814396
mp-bqzrs,LiYS2,Tetragonal,123,69.089,43.12,107.08247281208686
mp-brbnc,LiSbS2,Tetragonal,123,62.775,35.827,90.30193495931333
mp-brrft,Li5SbS,Tetragonal,123,34.76,29.197,68.43118649654996
mp-lnl,CsCu4S3,Tetragonal,123,44.731,20.578,53.52598782717693
mp-mbv,TlCu4S3,Tetragonal,123,50.486,15.68,42.626956885926596
mp-meu,Ba(PPd)2,Tetragonal,123,61.494,32.265,82.38607773117967
mp-mev,Ba(AsPd)2,Tetragonal,123,58.202,29.71,76.16942765128526
mp-bxcdk,Rb2Zr2O5,Tetragonal,123,86.047,39.669,103.15498467815051
mp-bxcec,Ba2Ga2O5,Tetragonal,123,111.605,54.122,139.772179787472
mp-bxcrd,Ba2Sc2O5,Tetragonal,123,105.611,50.033,129.62857410335107
mp-bxdtd,Rb2Hf2O5,Tetragonal,123,90.266,44.219,114.03591008104326
mp-bxfuw,MgAsPt5,Tetragonal,123,182.409,70.948,188.4158750968577
mp-bxhnr,Bi3BrO4,Tetragonal,123,59.352,28.1,72.80952676613828
mp-bxjxo,K2Rh2O5,Tetragonal,123,84.38,47.77,120.55928151274469
mp-oaw,K2AlF5,Tetragonal,123,27.421,13.57,34.94544394937026
mp-cdksm,Lu2Ta2O5,Tetragonal,123,177.355,80.165,209.00474033451485
mp-cdmmc,Rb2Bi2O5,Tetragonal,123,57.614,35.292,87.92325901582635
mp-ceaxw,Ba2Pd2O5,Tetragonal,123,103.917,37.382,100.13842187934112
mp-cecim,AgBiS2,Tetragonal,123,67.157,19.836,54.17422977131315
mp-cesvu,BaAgO2,Tetragonal,123,82.961,44.442,113.12562808488877
mp-cesxi,CaAgO2,Tetragonal,123,112.571,49.532,129.58928055365467
mp-cewfq,RbNaH2,Tetragonal,123,14.995,10.939,26.397838942135753
mp-out,Nb4CoSi,Tetragonal,124,194.139,100.741,257.6560810105422
mp-bfsx,Nb4CoP,Tetragonal,124,183.709,99.048,251.87692742415507
mp-bhae,Nb4FeSi,Tetragonal,124,193.734,64.075,173.13735721248395
mp-bhdk,Nb4SiNi,Tetragonal,124,187.702,102.86,260.91910019430424
mp-bhfg,Ta4FeP,Tetragonal,124,214.356,104.168,268.9395616271165
mp-bhcoj,Zr4CuP,Tetragonal,124,120.685,48.711,128.80370652634343
mp-qhn,RbNdTe4,Tetragonal,125,24.856,14.014,35.390800117405334
mp-qme,KPrTe4,Tetragonal,125,24.932,14.025,35.431279764920454
mp-ozw,Ti2ReB2,Tetragonal,127,251.582,188.97,453.3917564818229
mp-cgbus,SrZrO3,Tetragonal,127,142.374,89.039,221.03868225999253
mp-puq,Sc2AlSi2,Tetragonal,127,101.354,73.164,176.92093467576467
mp-qbl,Pr(BC)2,Tetragonal,127,167.295,117.642,285.9088716230285
mp-qbm,Tb(BC)2,Tetragonal,127,177.757,122.101,298.05784670843434
mp-qbo,Er(BC)2,Tetragonal,127,182.725,122.567,300.5097275479991
mp-qbp,Tm(BC)2,Tetragonal,127,183.742,122.764,301.209403688482
mp-rse,Ce2CdPt2,Tetragonal,127,80.182,32.529,85.96232720681132
mp-uby,Mg(ScGa)2,Tetragonal,127,69.339,43.42,107.76574020529992
mp-ykm,Al(CuRe)2,Tetragonal,127,210.864,90.488,237.4923309841235
mp-bdhd,Mn(BW)2,Tetragonal,127,297.065,188.623,467.0227977816632
mp-bdlq,Zr2InNi2,Tetragonal,127,128.163,59.224,153.95746711951193
mp-bduw,Zr2Ni2Sn,Tetragonal,127,134.49,59.967,156.6224890761851
mp-bfad,Ce2InGe2,Tetragonal,127,62.668,39.629,98.18976839034761
mp-bfqk,Dy2AlGe2,Tetragonal,127,75.399,46.845,116.4238300151625
mp-bfst,Ce2Pd2Pb,Tetragonal,127,77.426,29.445,78.3969201407595
mp-bfvg,Y2Pd2Pb,Tetragonal,127,81.155,29.744,79.51739832875198
mp-bgty,Zr2InCo2,Tetragonal,127,152.951,53.822,144.51486516409034
mp-bhhv,Ce2MgGe2,Tetragonal,127,64.09,47.276,113.83729872341847
mp-bhti,Ce2MgCu2,Tetragonal,127,53.011,23.306,60.98130018262687
mp-ehy,KAlF4,Tetragonal,127,47.118,19.31,50.96746763431757
mp-brcs,KAuSe2,Tetragonal,127,20.785,8.939,23.454625003506603
mp-broy,Rb2IN3,Tetragonal,127,14.872,8.101,20.568367850977868
mp-eju,Dy(BC)2,Tetragonal,127,180.481,122.595,299.8843646824429
mp-ezj,Sc2Ni2Sn,Tetragonal,127,105.02,41.918,110.98738644958512
mp-fac,CaSiO3,Tetragonal,127,215.108,144.683,354.5566518727049
mp-gnz,NaNbO3,Tetragonal,127,130.639,99.908,238.8388774625121
mp-hgn,Y2MgCu2,Tetragonal,127,62.66,10.28,29.24091193382427
mp-bctmm,Ce2MgSi2,Tetragonal,127,68.732,51.581,123.77903237294251
mp-huh,RbAlF4,Tetragonal,127,45.534,28.532,70.80664667482165
mp-bewas,Lu5(Si5Ir2)2,Tetragonal,127,141.033,66.176,171.67645653671246
mp-bfiyu,SrHfO3,Tetragonal,127,154.13,99.642,245.9297569177556
mp-bgkfj,Li(Sn3Pd)2,Tetragonal,127,61.911,17.812,48.75987417033089
mp-bixhn,Fe(BW)2,Tetragonal,127,325.443,177.956,451.5616252242731
mp-bjbuw,CsSnI3,Tetragonal,127,15.227,6.978,18.15997367971287
mp-bkujr,Hf2Ni2Sn,Tetragonal,127,154.562,67.477,176.71490797740054
mp-kga,Sm(BC)2,Tetragonal,127,173.961,119.281,291.27053042435324
mp-kws,Li(YSi)2,Tetragonal,127,67.911,42.707,105.91817762132773
mp-bqxrd,Y2MgNi2,Tetragonal,127,63.25,28.377,74.05597312574784
mp-bxcer,Er2MgGe2,Tetragonal,127,75.034,56.657,135.792688226463
mp-bxget,Tm2MgGe2,Tetragonal,127,76.381,56.917,136.7768873418164
mp-bxgrz,Y2MgGe2,Tetragonal,127,72.846,54.985,131.79489765028902
mp-bxjya,Sm2MgGe2,Tetragonal,127,68.5,50.773,122.14144486543647
mp-ncg,Ba3Nb5O15,Tetragonal,127,160.248,90.19,227.82826750552604
mp-cdmjs,Li(SiRh)2,Tetragonal,127,162.926,68.685,180.66696944909347
mp-cdqcl,Dy2MgGe2,Tetragonal,127,73.819,55.444,133.0272759000509
mp-oxy,YSF,Tetragonal,129,104.335,54.195,138.58910110294119
mp-oyr,UTeAs,Tetragonal,129,68.521,30.159,78.90109345330517
mp-cfywy,KCdSb,Tetragonal,129,21.748,8.899000000000001,23.49269746301067
mp-cfyzo,HfVSi,Tetragonal,129,160.956,60.257,160.71536244510935
mp-cfyzt,HoFeSi,Tetragonal,129,101.221,58.103,146.31334582851898
mp-cfyzu,HfVGe,Tetragonal,129,156.878,76.649,197.7420756683471
mp-cfzau,LaTeCl,Tetragonal,129,55.059,26.822,69.2250088906713
mp-cfzcc,LiMnSb,Tetragonal,129,30.709,14.417,37.398491487085145
mp-cfzct,MnCoSb,Tetragonal,129,86.94,36.492,96.038943332257
mp-cfzde,NdSbTe,Tetragonal,129,58.382,24.695,64.93007646078632
mp-cfzdi,NdTeCl,Tetragonal,129,58.83,28.775,74.22356100650379
mp-cfzgh,PrFeSi,Tetragonal,129,77.229,44.381,111.7387826223974
mp-cfzhw,PrSbTe,Tetragonal,129,57.378,21.419,57.14617927906051
mp-cfzib,PrTeCl,Tetragonal,129,57.809,28.206,72.78097278719257
mp-cfzij,RbMnBi,Tetragonal,129,15.6,9.919,24.553105661242267
mp-cfznt,KMgAs,Tetragonal,129,27.165,18.243,44.71856118029236
mp-cfzoe,SmFeSi,Tetragonal,129,84.808,49.211,123.70569398126037
mp-cfzoj,KMgBi,Tetragonal,129,19.85,12.079,30.126252635105896
mp-cfzom,SmCoSi,Tetragonal,129,104.084,55.758,141.92995040352167
mp-cfzon,SmGeRu,Tetragonal,129,89.845,45.174,116.06888354003225
mp-cfzpq,SmSbTe,Tetragonal,129,59.933,29.721,76.51497822164949
mp-cfzyb,ThAsSe,Tetragonal,129,86.821,41.691,107.81551393991145
mp-cfzyc,ThAsS,Tetragonal,129,97.846,52.831,134.31836634918253
mp-cfzyd,ThSbSe,Tetragonal,129,78.808,39.448,101.42153555272012
mp-cfzye,ThPSe,Tetragonal,129,89.668,41.079,106.91087853252193
mp-cfzyf,ThSbTe,Tetragonal,129,69.097,31.492,82.01599157393952
mp-cfzyg,ThBiTe,Tetragonal,129,65.77,28.967,75.77631093747928
mp-pdb,YOF,Tetragonal,129,123.796,47.409,126.12650299787246
mp-cgoue,SrHfN2,Tetragonal,129,114.728,44.495,118.20397098891372
mp-pha,BaHfN2,Tetragonal,129,104.52,44.085,115.95262844440718
mp-qek,TbSF,Tetragonal,129,105.651,55.746,142.22357938711937
mp-qel,HoSF,Tetragonal,129,110.246,56.989,145.83787986392488
mp-qem,ErSF,Tetragonal,129,108.999,58.212,148.24536314572094
mp-qft,DyAgSb2,Tetragonal,129,67.671,36.442,92.68797576997765
mp-qgt,YCuAs2,Tetragonal,129,96.439,47.451,122.29529795289338
mp-srk,NdSeF,Tetragonal,129,86.826,43.449,111.71276611159917
mp-tjt,NaZnAs,Tetragonal,129,36.358,21.583,54.05322658564027
mp-upk,Ba(ZnSn)2,Tetragonal,129,43.515,20.036,52.110152409666554
mp-ura,HfSiSe,Tetragonal,129,70.196,53.913,128.77188567150975
mp-urb,HfSiTe,Tetragonal,129,33.487,28.667,66.90838904807634
mp-urc,HfGeTe,Tetragonal,129,93.679,60.152,148.641406586965
mp-yam,KAgSe,Tetragonal,129,27.612,13.172,34.09452728939255
mp-bdhw,Eu(ZnGe)2,Tetragonal,129,56.803,35.695,88.53902769960797
mp-bdiu,BaCoS2,Tetragonal,129,55.064,31.713,79.81616357126534
mp-bdmb,ZrSiTe,Tetragonal,129,32.766,30.223,69.34727680301272
mp-bdnb,YCuSb2,Tetragonal,129,74.523,35.383,91.64488314822826
mp-bdnl,ZrCuSi2,Tetragonal,129,128.949,89.065,217.19053977415993
mp-bdrd,LiFeP,Tetragonal,129,71.576,51.439,124.49394844590053
mp-bdti,Li2NdSb2,Tetragonal,129,41.162,21.469,54.867805884584875
mp-bduj,NbCrN,Tetragonal,129,283.872,160.729,405.63065377119466
mp-bdwt,LaMnGe,Tetragonal,129,59.796,28.945,74.77047313675702
mp-bdxz,NaMnP,Tetragonal,129,47.234,34.395,83.03106168759263
mp-bdyf,CaMnSn,Tetragonal,129,40.38,24.968,62.10385851561859
mp-bdyh,CaMnGe,Tetragonal,129,42.796,33.947,80.54432074414021
mp-bdyr,CeFeSi,Tetragonal,129,82.529,33.359,88.19404511543145
mp-becb,PrMnSi,Tetragonal,129,53.092,31.081,78.0185234480476
mp-becw,MgMnGe,Tetragonal,129,77.255,49.889,123.15668250761573
mp-beea,CeAgAs2,Tetragonal,129,77.05,45.902,114.89085767292784
mp-beeq,Ce(GePt)2,Tetragonal,129,122.45,15.575,44.824518508846374
mp-beer,HfCuSi2,Tetragonal,129,139.708,88.21,218.61886670319748
mp-befm,KMnP,Tetragonal,129,11.679,9.709,22.80701512984401
mp-begq,Ba(MgPb)2,Tetragonal,129,30.681,20.078,49.44763302146788
mp-bemu,NaMnAs,Tetragonal,129,23.526,22.44,51.0794788105528
mp-bepu,NdFeSi,Tetragonal,129,86.25,46.56,118.37869706200257
mp-beqc,LiCoAs,Tetragonal,129,48.848,30.049,74.8076195998709
mp-besj,MnAlGe,Tetragonal,129,111.84,63.4,159.97168354557306
mp-besn,LaCoGe,Tetragonal,129,61.994,33.99,86.21362964377286
mp-beuw,TbMnSi,Tetragonal,129,81.024,46.765,117.65849853538369
mp-bfao,NaMnSb,Tetragonal,129,26.873,16.61,41.31735151035185
mp-bffk,CaMnSi,Tetragonal,129,42.158,35.285,82.76451554473012
mp-bfje,NdGeRu,Tetragonal,129,82.192,42.405,108.54750256937307
mp-bflh,YMnSi,Tetragonal,129,89.902,56.086,139.29191676898142
mp-bfmd,PrMnGe,Tetragonal,129,67.272,31.756,82.31554590447486
mp-bfpr,TbFeSi,Tetragonal,129,97.721,54.466,137.79704188660898
mp-bfrb,CeMnGe,Tetragonal,129,76.858,36.44,94.40085418742088
mp-bfrp,RbMnP,Tetragonal,129,16.708,9.385,23.71475272647835
mp-bftv,LiFeAs,Tetragonal,129,67.093,39.305,98.65083831426861
mp-bgih,KMnAs,Tetragonal,129,9.764,10.135,22.589171380018765
mp-bgjy,NdCoSi,Tetragonal,129,69.818,39.38,99.44338619320511
mp-bgkp,NbSiAs,Tetragonal,129,151.91,96.024,237.93765438945618
mp-bgua,NaFeAs,Tetragonal,129,48.294,33.541,81.70729942888526
mp-bguh,UNiAs2,Tetragonal,129,112.758,49.253,128.97947231031645
mp-bgvb,YTiSi,Tetragonal,129,92.176,49.378,125.69022586880881
mp-bgya,NdMnSi,Tetragonal,129,56.943,32.522,81.96223384197766
mp-bhfi,Li2PrSb2,Tetragonal,129,41.299,21.813,55.64268604076591
mp-bhlb,UAsSe,Tetragonal,129,77.206,47.857,118.98605556132033
mp-bhpa,DyFeSi,Tetragonal,129,101.371,56.128,142.1486265916428
mp-bhyh,BiClO,Tetragonal,129,26.218,18.304,44.54556042822665
mp-bhyz,SrClF,Tetragonal,129,48.203,23.272,60.13796644051441
mp-bhzg,PbClF,Tetragonal,129,47.996,16.906,45.38878630651236
mp-bhzp,NaMnBi,Tetragonal,129,23.646,13.384,33.778878299850575
mp-biad,BiIO,Tetragonal,129,16.924,11.049,27.22278002620469
mp-bibo,SrBrF,Tetragonal,129,34.729,18.311,46.72161562637757
mp-bibp,LaClO,Tetragonal,129,67.468,33.92,87.15420795179499
mp-bick,SrIF,Tetragonal,129,10.84,8.443,20.108368039450237
mp-bico,GdClO,Tetragonal,129,70.235,31.328,81.81900286324593
mp-bicw,NdClO,Tetragonal,129,74.064,34.045,88.56480492668896
mp-bidg,NdBrO,Tetragonal,129,20.663,15.753,37.68282461217875
mp-bidi,BaBrF,Tetragonal,129,36.564,16.453,42.92114176542867
mp-bidk,BiBrO,Tetragonal,129,18.132,11.592,28.666959083469727
mp-birg,BaClF,Tetragonal,129,40.624,18.465,48.106340024369906
mp-bjho,LiHO,Tetragonal,129,14.251,10.119,24.547072571493413
mp-bjhs,SrHCl,Tetragonal,129,38.352,22.306,56.051290808229346
mp-bjuz,SrHI,Tetragonal,129,7.823,6.04,14.411138296790812
mp-bkdi,CaHBr,Tetragonal,129,14.185,8.906,22.094100192378697
mp-fkmaw,LiCuS,Tetragonal,129,62.759,30.22,78.12094820523852
mp-bolj,NaAlSi,Tetragonal,129,40.723,19.975,51.50394898834985
mp-botm,CaClF,Tetragonal,129,49.817,23.323,60.5237884114508
mp-boyz,PH4Br,Tetragonal,129,14.902,8.571,21.576390900388535
mp-bpbu,UBrN,Tetragonal,129,21.314,16.394,39.14553181637123
mp-bped,SmClO,Tetragonal,129,74.842,34.161,88.94957248721427
mp-bpki,PrClO,Tetragonal,129,72.722,33.187,86.41561917303551
mp-bpnm,ThBrN,Tetragonal,129,24.781,20.167,47.59100458152577
mp-bpnn,ThIN,Tetragonal,129,18.541,15.059,35.55191238221895
mp-brjz,SmBrO,Tetragonal,129,22.04,15.101,36.88004777089668
mp-brzn,HoClO,Tetragonal,129,67.211,30.398,79.24682392438942
mp-bsuj,AcClO,Tetragonal,129,62.71,30.419,78.55528696081886
mp-epk,BaZrN2,Tetragonal,129,100.324,40.749,107.6694850009218
mp-buej,Ca(BeGe)2,Tetragonal,129,71.325,48.951,119.51222273567467
mp-etk,ZrGeTe,Tetragonal,129,52.592,43.277,101.88465656319478
mp-ett,USeO,Tetragonal,129,114.334,27.307,75.88005379831438
mp-evy,NiGePd,Tetragonal,129,165.803,51.908,141.0087783847942
mp-faw,UTeN,Tetragonal,129,38.078,30.992,73.13442760938123
mp-fna,ThTeO,Tetragonal,129,79.236,51.071,126.1170507689271
mp-fqd,GdSF,Tetragonal,129,100.481,50.55,129.8714205964323
mp-ftw,Y(SiIr)2,Tetragonal,129,179.899,63.404,170.21501500412037
mp-fvf,SmSF,Tetragonal,129,101.622,51.669,132.54340825444908
mp-fvm,ZrSiS,Tetragonal,129,126.096,87.404,212.99840464513025
mp-fxo,PrSF,Tetragonal,129,96.139,47.45,122.23933863702003
mp-gbb,MgCuAs,Tetragonal,129,65.78,31.327,81.1057587671155
mp-gfu,UAs2Pd,Tetragonal,129,117.844,51.105,133.9515629564276
mp-ggv,KMnSb,Tetragonal,129,22.579,12.876,32.45810025678241
mp-gmg,UAsS,Tetragonal,129,78.118,42.242,107.37228667081227
mp-gqx,KLiTe,Tetragonal,129,19.903,11.932,29.834080540472637
mp-hal,ErTiGe,Tetragonal,129,90.675,52.162,131.30725214151093
mp-hdo,NaZnP,Tetragonal,129,42.42,26.866,66.54880733944954
mp-hfq,ZrGeSe,Tetragonal,129,103.022,68.946,169.1126030602203
mp-hga,NbPO5,Tetragonal,129,87.368,51.893,129.95056836848758
mp-bxitr,SmGa3,Hexagonal,194,69.324,41.914,104.65098174367512
mp-bxiwz,RbSn3,Hexagonal,194,12.419,8.094,19.948280611232384
mp-bxixq,TbGa3,Hexagonal,194,71.201,44.485,110.4522037638325
mp-bxiyz,Tc3Pt,Hexagonal,194,286.08,178.077,442.43065919018983
mp-bxizg,TbHg3,Hexagonal,194,59.883,21.49,57.58192608096887
mp-bxjaj,Cu3Si,Hexagonal,194,144.315,60.128,158.3869951913814
mp-bxjbl,TcIr3,Hexagonal,194,341.997,157.989,410.7213604089596
mp-bxjbw,TcRu3,Hexagonal,194,308.589,192.283,477.642116348106
mp-bxjbx,Tc3Ni,Hexagonal,194,286.678,150.925,385.1806990689039
mp-bxjsq,ReIr3,Hexagonal,194,358.896,159.736,417.29819471637563
mp-bxjsy,AcSe3,Hexagonal,194,55.602,18.189,49.201886548285096
mp-bxjtn,AcGa3,Hexagonal,194,58.767,37.601,92.97379969799253
mp-bxjuk,AcAu3,Hexagonal,194,74.927,22.77,62.02677472520814
mp-bxjvq,SmAl3,Hexagonal,194,68.731,43.821,108.42092986392763
mp-bxjvz,SmHg3,Hexagonal,194,57.544,21.074,56.343842235139846
mp-bht,Er2In,Hexagonal,194,55.971,27.494,70.87668336344144
mp-biq,RhSe,Hexagonal,194,138.031,26.75,75.38049430296046
mp-bkx,LaAl3,Hexagonal,194,61.963,41.255,101.2861976763639
mp-cdhto,TmMg3,Hexagonal,194,40.818,20.14,51.886269267991636
mp-cdhyg,Zn3Cu,Hexagonal,194,92.401,63.909,155.8060097006262
mp-cdial,YbMg3,Hexagonal,194,28.79,11.895,31.365322851473056