material_id,formula_pretty,symmetry.crystal_system,symmetry.number,bulk_modulus.vrh,shear_modulus.vrh,youngs_modulus_vrh
mp-cfrpw,Ba3Bi2,Cubic,221,18.785,9.982,25.43990276919366
mp-cfsil,HfZn,Cubic,221,115.663,47.206,124.65883180151954
mp-cfsiw,TiZn,Cubic,221,110.695,51.57,133.9142467842202
mp-cfsrs,Cr3N4,Cubic,221,274.267,135.333,348.6530936163418
mp-cfxft,VCo3,Cubic,221,239.242,154.123,380.63271609418604
mp-cfxgg,ZrOs3,Cubic,221,278.47,107.11,284.8133676738955
mp-cfxgh,ZrPd3,Cubic,221,170.19,76.147,198.79281045205784
mp-cfxgi,ZrRu3,Cubic,221,224.96,86.307,229.56330636229995
mp-cfxyz,CuPd,Cubic,221,147.228,45.499,123.74927070115338
mp-cfxzm,UBi,Cubic,221,75.465,21.893,59.88769978814925
mp-cfxzy,HfPt3,Cubic,221,231.325,112.224,289.8067985695839
mp-cfyaf,FeH3,Cubic,221,207.518,138.143,339.16846216824837
mp-cfzac,IrN,Cubic,221,304.326,73.461,203.97087967324893
mp-cfzen,OsN,Cubic,221,353.873,130.572,348.814198567176
mp-cfzmi,ReN,Cubic,221,366.211,175.334,453.6092028019564
mp-cfzwp,TcN,Cubic,221,322.518,156.601,404.3568474649849
mp-bng,TaRh3,Cubic,221,260.037,153.82,385.45676507150955
mp-cgdcb,IrO3,Cubic,221,202.01,102.231,262.4246694227128
mp-cginc,NpB6,Cubic,221,170.195,88.212,225.65105045616457
mp-cgiom,Ta4C3,Cubic,221,292.905,133.885,348.54856145072085
mp-bnn,HfRh3,Cubic,221,215.169,111.279,284.7490840990716
mp-bnr,GdCd,Cubic,221,53.093,24.157,62.92717028827493
mp-chcsk,MgCd,Cubic,221,42.487,10.818,29.915021760354062
mp-chcux,Ca3Zn,Cubic,221,20.037,8.857,23.1587023112168
mp-chdcj,Mg3Bi,Cubic,221,40.241,12.544,34.08981920505452
mp-chddq,SnBi,Cubic,221,49.232,5.49,15.87973522384552
mp-chdff,CaZn,Cubic,221,32.75,19.961,49.77121206994272
mp-chdfg,CaMg,Cubic,221,25.36,14.975,37.53658777661853
mp-boe,UIr3,Cubic,221,303.949,122.424,323.79895731776304
mp-bon,NdZn,Cubic,221,52.019,28.401,72.08429328627655
mp-cidmu,CsI,Cubic,221,9.862,5.449,13.804548080490939
mp-bot,NdCd,Cubic,221,48.816,18.872,50.153036341640465
mp-pst,SrS,Cubic,221,51.792,19.98,53.11045781153768
mp-ptd,ThSb,Cubic,221,81.728,31.802,84.45201094640161
mp-pts,SmTe,Cubic,221,62.478,37.283,93.29203160419551
mp-puu,BaSe,Cubic,221,38.98,17.482,45.62523426224873
mp-pvi,ScF3,Cubic,221,90.536,40.713,106.21741577415544
mp-bph,CaCd,Cubic,221,31.367,17.651,44.58918187593958
mp-bpk,KB6,Cubic,221,133.72,97.556,235.41794303772087
mp-qcv,La3Al,Cubic,221,33.748,20.182,50.48275677367285
mp-bpx,TiIr3,Cubic,221,294.735,163.457,413.86295394411553
mp-qcw,LiAl3,Cubic,221,63.994,40.501,100.33589099418022
mp-qdj,AlPt,Cubic,221,184.169,46.699,129.1785682703444
mp-qdo,AlRe,Cubic,221,218.955,52.218,145.11775026336832
mp-bqm,LaMg,Cubic,221,33.855,21.385,52.99636091907279
mp-brd,GaCo,Cubic,221,173.828,47.411,130.37947911653293
mp-qpq,Sm3Al,Cubic,221,44.626,25.657,64.59224331964772
mp-qpx,YAl,Cubic,221,63.427,34.161,86.88466384633892
mp-qpz,YAl3,Cubic,221,75.089,58.719,139.7335041833048
mp-qqf,ScAg,Cubic,221,80.1,29.349,78.46383298287775
mp-qqq,LiAu3,Cubic,221,98.057,10.927,31.606957603786324
mp-qqr,LuAu,Cubic,221,96.113,19.139,53.84307288001093
mp-qqy,ScAu,Cubic,221,103.841,41.675,110.27288680853232
mp-qrb,TiAu,Cubic,221,133.377,34.832,96.12792117030644
mp-qrc,Ti3Au,Cubic,221,134.279,20.319,58.02998187193376
mp-qrs,BeRh,Cubic,221,207.982,99.333,257.07269816212
mp-qrv,TiBe,Cubic,221,124.845,73.705,184.7566181621453
mp-qsc,CaHg,Cubic,221,36.327,19.466,49.547848046275895
mp-brl,ScIr,Cubic,221,166.725,79.378,205.51817253987122
mp-qsg,CaSn3,Cubic,221,44.225,23.071,58.96032498426926
mp-qsz,NbCd3,Cubic,221,93.666,48.102,123.21390880583408
mp-qtd,ZrCd3,Cubic,221,78.411,27.666,74.26376111738729
mp-quw,TaCo3,Cubic,221,242.198,141.455,355.2115869150244
mp-qvc,TiCu,Cubic,221,129.327,49.243,131.09080276700274
mp-qvm,DyTl,Cubic,221,53.012,14.909,40.89340407600104
mp-qvn,EuHg,Cubic,221,41.48,17.948,47.05696659830884
mp-qwa,GaIr,Cubic,221,215.702,42.667,120.08329567263434
mp-qwt,GaPt3,Cubic,221,215.396,77.72,208.12754394204785
mp-qxe,TbGa3,Cubic,221,72.033,43.497,108.6263833379559
mp-qym,HfOs,Cubic,221,225.228,114.202,293.07190215296896
mp-qyp,HfPt,Cubic,221,179.474,32.338,91.51740119840213
mp-qyr,HfRh,Cubic,221,180.032,52.643,143.90283275438262
mp-qyu,HfTc,Cubic,221,188.407,83.13,217.41381626618912
mp-qzb,NdHg,Cubic,221,55.951,17.642,47.892330671985775
mp-qzd,PrHg,Cubic,221,54.378,18.135,48.96206891415521
mp-qzf,ScHg,Cubic,221,76.842,26.456,71.19715609653593
mp-qzk,HoIr,Cubic,221,137.797,51.619,137.66691057611663
mp-qzm,GaAg,Cubic,221,65.386,7.734,22.321905302807366
mp-qzs,ZrIr,Cubic,221,191.238,54.929,150.38839041872737
mp-qzv,LaPt3,Cubic,221,138.513,49.969,133.81554102829597
mp-qzw,LaTl,Cubic,221,46.826,15.837,42.69743951636119
mp-rae,LuZn,Cubic,221,67.899,40.231,100.78712579531667
mp-rag,MgTl,Cubic,221,33.764,4.18,12.04302260315534
mp-bsg,URh3,Cubic,221,214.274,77.53,207.55681802785307
mp-rai,MnNi,Cubic,221,149.255,38.385,106.06269376735577
mp-ram,MnZn3,Cubic,221,80.961,48.083,120.41142218334787
mp-raz,NbRu3,Cubic,221,254.366,135.775,345.79845300726583
mp-bsi,TiRh3,Cubic,221,228.591,123.939,314.90463219144584
mp-rbd,ScNi,Cubic,221,106.024,43.86,115.63474287987799
mp-rbe,Ni3Sn,Cubic,221,166.201,76.925,199.92964256300303
mp-rbs,NpRh3,Cubic,221,215.446,71.946,194.2188622383347
mp-rbx,ZrOs,Cubic,221,208.008,98.481,255.17265988747485
mp-rcc,TiPd,Cubic,221,153.552,19.089,54.988352462245565
mp-rci,TiPt,Cubic,221,185.077,25.456,73.020200224906
mp-rcr,TbRh,Cubic,221,109.058,37.508,100.9507658069222
mp-rcu,TmRh,Cubic,221,118.772,47.637,126.05792227313573
mp-rcw,ScZn,Cubic,221,75.344,45.806,114.26241134793517
mp-rcy,SmTl,Cubic,221,52.78,17.365,46.94642895762784
mp-rdc,TaTc,Cubic,221,257.672,128.64,330.8604775213607
mp-rdd,TiTc,Cubic,221,204.076,80.038,212.3526418919895
mp-rdg,YbTl,Cubic,221,32.524,25.063,59.822571924817545
mp-rdi,VZn3,Cubic,221,117.948,65.384,165.5595720896505
mp-bso,LuPd3,Cubic,221,134.504,51.613,137.27963651304586
mp-bsz,ScCu,Cubic,221,86.854,35.894,94.64418761637477
mp-btc,MgRh,Cubic,221,115.355,59.938,153.26815789538503
mp-bte,MgSc,Cubic,221,49.321,28.271,71.20751908825767
mp-cpkqd,Ir3Rh,Cubic,221,323.477,198.555,494.48990972945785
mp-btp,VRh3,Cubic,221,251.212,155.92,387.5745697461179
mp-bud,HoMg,Cubic,221,41.356,19.049,49.540683468770304
mp-rwb,Ag3Pt,Cubic,221,121.006,34.758,95.1624505550863
mp-rww,Cu3Pt,Cubic,221,169.333,55.578,150.2912738915889
mp-rxr,TiPt3,Cubic,221,238.047,106.959,279.0785795359883
mp-bup,ScCd,Cubic,221,67.024,34.535,88.41869961418803
mp-bvo,NdAg,Cubic,221,55.86,14.117,39.060527031266346
mp-sqb,CrRh3,Cubic,221,230.758,154.192,378.3132905798934
mp-bwl,YbAl3,Cubic,221,59.791,53.601,123.80659008730586
mp-sqj,ScIr3,Cubic,221,243.259,111.389,289.91589146375384
mp-sqo,PrPt3,Cubic,221,153.052,58.109,154.74329021294693
mp-bwn,EuZn,Cubic,221,37.377,21.06,53.190054733427935
mp-bwq,CdAu3,Cubic,221,113.161,21.558,60.812272129758114
mp-ssz,Cd3In,Cubic,221,36.705,15.689,41.197280730342435
mp-stm,MnAu,Cubic,221,113.61,35.386,96.17302597444022
mp-sww,PrB6,Cubic,221,173.84,117.539,287.76187776089535
mp-swx,TbB6,Cubic,221,174.096,88.469,226.96242730906067
mp-sxm,VOs,Cubic,221,284.95,122.261,320.88928233332757
mp-syg,Ni3Pt,Cubic,221,202.169,90.94,237.24704492240986
mp-bxr,ErIn3,Cubic,221,55.358,29.738,75.66505544093314
mp-bxw,ErB6,Cubic,221,174.535,75.967,199.02547668169962
mp-tjw,MoPt3,Cubic,221,252.326,105.846,278.5843696559205
mp-bzb,NdMg,Cubic,221,37.564,20.725,52.51673399941537
mp-bzj,VFe,Cubic,221,195.793,68.158,183.2142711181825
mp-bzn,NbIr3,Cubic,221,313.146,205.818,506.4891612460446
mp-tym,Cu3N,Cubic,221,161.585,21.34,61.320532903901444
mp-cbr,VRu,Cubic,221,230.974,84.674,226.3610310289662
mp-cce,MgHg,Cubic,221,45.593,19.452,51.09021464370068
mp-cco,FeNi3,Cubic,221,199.381,99.899,256.8064137559058
mp-ddgxc,AgN,Cubic,221,147.992,27.861,78.64759653863517
mp-cdi,ZrIr3,Cubic,221,267.921,149.21,377.5431535730813
mp-cep,Zr3Al,Cubic,221,100.33,55.844,141.31348660721792
mp-cez,SnTe,Cubic,221,42.065,6.146,17.581727582533006
mp-cff,AlNi,Cubic,221,157.34,70.652,184.36084986879735
mp-cfx,TmMg,Cubic,221,43.263,21.014,54.257263701650494
mp-cgk,CeRh3,Cubic,221,171.204,73.359,192.57201484230052
mp-cgv,LuIr,Cubic,221,147.522,70.328,182.05388431917706
mp-cgz,Nd3Tl,Cubic,221,41.606,16.713,44.21822570320283
mp-chg,HoTl,Cubic,221,55.065,19.277,51.78776207229282
mp-cho,PrMg,Cubic,221,37.078,21.807,54.697721108530445
mp-chp,TbPt3,Cubic,221,169.757,71.121,187.2175846203945
mp-xei,Nb4C3,Cubic,221,269.426,127.45,330.272358313527
mp-cil,PrPd3,Cubic,221,111.571,42.251,112.5462295842574
mp-cjr,TmGa3,Cubic,221,76.098,44.081,110.8408754180817
mp-cjw,ZrHg3,Cubic,221,82.284,14.568,41.26853266008722
mp-ckx,TbMg,Cubic,221,40.716,20.807,53.335667223951596
mp-cll,Fe3Pt,Cubic,221,193.206,31.661,90.06338593997177
mp-cmr,La3Sn,Cubic,221,44.031,24.189,61.335232022881726
mp-cmu,ZnAu,Cubic,221,114.545,19.123,54.344759633143866
mp-coh,UAl3,Cubic,221,88.376,63.453,153.5983545974965
mp-cpo,ThB6,Cubic,221,195.95,135.517,330.38693408739965
mp-cqm,ScRh,Cubic,221,138.583,58.07,152.8592844313968
mp-crb,NbF3,Cubic,221,93.987,27.834,75.99963660485159
mp-csr,TbCu,Cubic,221,71.128,31.116,81.46817845398773
mp-ctl,YbCd,Cubic,221,31.809,15.006,38.90080579174703
mp-bbrb,Fe15Co,Cubic,221,181.802,84.311,219.06852728765463
mp-cuf,HoAl3,Cubic,221,76.786,59.484,141.8284645289503
mp-hg,AlPt3,Cubic,221,224.023,86.928,230.9163831951905
mp-cun,AlIr,Cubic,221,229.406,119.385,305.2102552739403
mp-hj,YRh,Cubic,221,106.896,41.489,110.20874681716398
mp-cvn,CeSn3,Cubic,221,58.694,28.745,74.13295742260541
mp-cvo,ZnAg,Cubic,221,89.933,39.732,103.89577006503386
mp-cvp,ErPt3,Cubic,221,177.756,75.459,198.31486041526003
mp-cvu,FeRh,Cubic,221,198.729,74.969,199.7845949510993
mp-cvx,ThTe,Cubic,221,83.002,49.635,124.1565573045898
mp-cwf,NdB6,Cubic,221,174.362,117.48,287.8023963807008
mp-cwj,Cu3N,Cubic,221,116.742,38.179,103.27837016001341
mp-cwr,GaNi,Cubic,221,152.55,42.594,116.90181651354139
mp-cwy,LaAg,Cubic,221,48.529,14.165,38.7270241687115
mp-hn,HoPt3,Cubic,221,174.749,74.077,194.71713495865117
mp-cxf,ErCu,Cubic,221,73.462,28.142,74.86604501706044
mp-cxv,HoCu,Cubic,221,73.432,32.372,84.67343049377048
mp-bdfc,EuTe,Cubic,221,50.965,11.726,32.67226119389386
mp-bdge,Pr3In,Cubic,221,41.265,17.99,47.122164897556154
mp-cyb,NdSn3,Cubic,221,56.558,16.292,44.594100125829456
mp-cyd,HoPd3,Cubic,221,127.535,49.519,131.53319645518414
mp-bdho,Fe11Si5,Cubic,221,222.032,109.921,283.05283936820973
mp-bdii,TmPb3,Cubic,221,49.521,6.186,17.816154895992867
mp-bdkg,GaFe3,Cubic,221,169.4,55.803,150.845392311743
mp-bdme,Ce3Ga,Cubic,221,43.072,28.756,70.56444109082622
mp-cyu,NdIr3,Cubic,221,191.377,86.186,224.81045179512265
mp-bdny,GdTl,Cubic,221,32.249,14.765,38.43001977365665
mp-bdoj,SmIn3,Cubic,221,54.505,31.505,79.24633486309096
mp-cyz,LaTl3,Cubic,221,44.459,17.852,47.233920822064555
mp-bdqd,PrIn,Cubic,221,51.835,20.53,54.40709489590139
mp-czk,LiHg,Cubic,221,32.253,13.906,36.475777906293764
mp-bdtw,FeSe,Cubic,221,112.111,64.91,163.22808146185727
mp-bduh,YIn3,Cubic,221,54.648,29.977,76.02914518798893
mp-bdxe,ThIn3,Cubic,221,65.84,31.631,81.794386059847
mp-bdxm,UGa3,Cubic,221,83.085,52.872,130.8583181244973
mp-bdxx,CePb3,Cubic,221,50.804,18.878,50.392324175375094
mp-bdzj,CaIn,Cubic,221,34.02,15.815,41.079420572640515
mp-czz,HfCo,Cubic,221,123.98,60.459,156.0164602138303
mp-beas,SmIn,Cubic,221,55.174,21.916,58.06048109774966
mp-becm,Fe3Ge,Cubic,221,175.908,71.192,188.1886291633551
mp-begc,PuTe,Cubic,221,19.367,33.153,63.325085574331
mp-behh,YbIn3,Cubic,221,38.382,21.04,53.368301587534695
mp-behz,La3Ga,Cubic,221,40.212,15.802,41.91552365176857
mp-bekj,CaPb3,Cubic,221,38.108,18.658,48.120584560316445
mp-bekp,NaPb3,Cubic,221,32.491,14.898,38.76852801879489
mp-belq,LaIn,Cubic,221,49.919,20.995,55.24061003677848
mp-bemj,NdPb3,Cubic,221,47.766,8.571,24.261840625802503
mp-dbh,ThTl3,Cubic,221,58.019,26.727,69.50785080982548
mp-bepz,Zr3In,Cubic,221,96.578,51.211,130.55684530349467
mp-berh,LaIn3,Cubic,221,49.718,29.861,74.63990605256544
mp-bern,Ce3Sn,Cubic,221,38.321,33.177,77.24032910085056
mp-dbx,DyMg,Cubic,221,41.646,19.61,50.848870548191606
mp-bevx,Pd3Pb,Cubic,221,129.07,42.248,114.27553856256024
mp-beww,EuB6,Cubic,221,143.683,107.737,258.5809177280033
mp-bexr,NpAs,Cubic,221,83.6,19.027,53.05590174445108
mp-dck,FeCo,Cubic,221,189.836,91.403,236.28630658590944
mp-bexz,PrIn3,Cubic,221,52.62,30.543,76.77454148819287
mp-beyq,TbIn3,Cubic,221,55.261,31.329,79.04869729392426
mp-dcn,Pr3Al,Cubic,221,42.665,21.141,54.43237638799485
mp-bezj,PrPb3,Cubic,221,47.139,8.839,24.95710380284315
mp-bezl,UIn3,Cubic,221,61.685,41.165,101.02275318274245
mp-bezn,TePb,Cubic,221,40.408,9.136,25.48716931574102
mp-bfap,SnPt3,Cubic,221,198.87,57.089,156.30986871633579
mp-bfbp,InNi,Cubic,221,116.101,40.305,108.37413857923667
mp-bfbx,GdIn,Cubic,221,104.041,18.822,53.25458102705887
mp-bfca,Ni3Ge,Cubic,221,190.994,85.736,223.7308746018782
mp-dcx,CuAu3,Cubic,221,135.617,23.973,67.91710087878111
mp-bffb,UAs,Cubic,221,97.753,28.717,78.46720286294631
mp-bfhf,CeP,Cubic,221,72.137,11.588,32.997127197926304
mp-bfjh,NdIn3,Cubic,221,53.471,31.022,77.9846749967352
mp-bfjm,Sm3In,Cubic,221,44.614,24.021,61.09763558275213
mp-bfjy,PbSe,Cubic,221,56.543,13.524,37.57616740102537
mp-bfjz,InPd,Cubic,221,110.79,29.49,81.26008373404079
mp-bfll,EuMg,Cubic,221,17.65,12.637,30.606483754402554
mp-ddu,HfIr3,Cubic,221,278.691,150.309,382.2128644592055
mp-bfmv,TiZn3,Cubic,221,100.968,33.181,89.71531866045792
mp-if,CaPd,Cubic,221,55.058,18.707,50.41157082025875
mp-dec,ErAl3,Cubic,221,76.715,59.683,142.1782302089515
mp-bfox,CeB6,Cubic,221,172.63,117.511,287.33558079071327
mp-bfqj,ThPb3,Cubic,221,58.108,20.125,54.12633389732012
mp-ig,ZrRu,Cubic,221,180.261,77.994,204.48964312829983
mp-bfsg,YbPb3,Cubic,221,39.636,20.904,53.33561136383143
mp-bfsh,HoIn3,Cubic,221,55.314,30.395,77.06861809032429
mp-bfsi,LaPb3,Cubic,221,45.604,15.239,41.13510732583146
mp-bfuf,Pr3Pb,Cubic,221,42.807,21.821,55.95521840097977
mp-bfuh,Nd3In,Cubic,221,41.855,19.312,50.2131728293656
mp-bfui,PuGe3,Cubic,221,76.629,50.621,124.45751807791582
mp-dff,HoRh,Cubic,221,113.966,41.48,110.97607875256273
mp-dfj,DyAg,Cubic,221,66.847,18.225,50.120124585173194
mp-ij,ErTl,Cubic,221,57.284,21.314,56.886618680306064
mp-dfv,TiRe,Cubic,221,228.62,69.775,189.99602255057005
mp-bgie,UTl3,Cubic,221,51.996,27.469,70.0682073510414
mp-bgif,FePd3,Cubic,221,166.438,69.408,182.8119157268402
mp-dgt,YB6,Cubic,221,172.001,84.351,217.49852113752885
mp-dgv,LuPd,Cubic,221,102.592,40.255,106.79671822337667
mp-dha,ZrCu,Cubic,221,105.385,29.697,81.44109360362235
mp-dhc,ScCo,Cubic,221,119.727,58.07,149.96470232545877
mp-dhm,MnHg,Cubic,221,69.323,21.852,59.32275886015638
mp-dhq,DyPd,Cubic,221,91.251,34.497,91.90907290510947
mp-bgyk,GdB6,Cubic,221,167.657,96.068,241.9846689180504
mp-dhs,ErMg,Cubic,221,42.316,19.228,50.096243104203154
mp-bham,GaRu,Cubic,221,204.343,89.664,234.6684779384454
mp-bhfx,Fe3Sn,Cubic,221,124.102,60.607,156.3664043953404
mp-diw,Cu3Au,Cubic,221,104.875,44.872,117.81338648166744
mp-djg,TbAg,Cubic,221,65.884,23.666,63.40603428550774
mp-bhpg,YIn,Cubic,221,56.047,20.93,55.83920003596533
mp-djv,ZrCo,Cubic,221,128.339,48.526,129.28361160484658
mp-bhvl,CsCl,Cubic,221,14.588,7.445,19.087834950887544
mp-bhvv,TlBr,Cubic,221,19.646,7.329,19.55528099959256
mp-iv,ZrRh3,Cubic,221,209.808,110.129,281.1881056367833
mp-bhwv,KI,Cubic,221,12.418,5.209,13.710012434354615
mp-bhxa,CsBr,Cubic,221,12.31,6.573,16.73959657954624
mp-dkp,DyZn,Cubic,221,59.752,25.072,65.98664547198622
mp-dkx,NbO,Cubic,221,242.599,147.84,368.6373753507446
mp-bigt,SrBi3,Cubic,221,42.244,14.827,39.82202538870719
mp-dlc,TmZn,Cubic,221,63.975,34.632,88.01422953164104
mp-biif,TlI,Cubic,221,16.52,6.535,17.32104109100633
mp-iy,DyRh,Cubic,221,112.175,41.33,110.42790157600137
mp-biij,BaBi3,Cubic,221,39.346,17.54,45.81244420186166
mp-bilt,KCl,Cubic,221,18.701,8.644,22.469967658733225
mp-bimd,RbCl,Cubic,221,16.534,8.333,21.403303667903685
mp-bimg,RbI,Cubic,221,11.14,5.547,14.272133343598428
mp-dlt,NdPd3,Cubic,221,115.77,50.728,132.78889211582816
mp-dlu,DyCu,Cubic,221,71.228,31.884,83.23275820953869
mp-dml,TmPt3,Cubic,221,179.331,77.422,203.0458830837727
mp-dnp,ErRh,Cubic,221,114.582,44.03,117.091849779254
mp-dnz,YbPd3,Cubic,221,107.848,39.152,104.77695939299028
mp-dob,YTl3,Cubic,221,46.531,15.556,41.98883733701152
mp-doh,YHg,Cubic,221,65.407,31.429,81.26988546892159
mp-dol,YPt3,Cubic,221,169.488,70.92,186.71692804771965
mp-dov,Ce3Al,Cubic,221,43.376,30.324,73.77910163787301
mp-doz,DyIr3,Cubic,221,212.008,96.074,250.398320071903
mp-ji,SrB6,Cubic,221,144.836,110.605,264.48877942738477
mp-dpi,LiAg,Cubic,221,41.392,18.419,48.11945181808618
mp-dpn,ErTl3,Cubic,221,47.25,19.207,50.74508564399188
mp-dpq,SrTl,Cubic,221,25.126,18.121,43.826930919047264
mp-dqa,GaRh,Cubic,221,179.773,58.842,159.16087105979827
mp-dqf,NbRh3,Cubic,221,248.556,148.259,371.01013397738285
mp-dqp,YbIn,Cubic,221,35.186,23.996,58.65437812803926
mp-jm,TiF3,Cubic,221,102.198,30.021,82.03073369279443
mp-dqv,DyPt3,Cubic,221,172.498,72.237,190.16575732664555
mp-dre,YAg,Cubic,221,65.962,20.315,55.27088450557055
mp-dro,SmSn3,Cubic,221,57.389,13.663,37.97531702631437
mp-dsn,ThRh3,Cubic,221,170.311,76.264,199.07694170099643
mp-dst,CrPt3,Cubic,221,231.851,95.103,250.99098834006196
mp-dsu,YZn,Cubic,221,60.055,30.473,78.1934130356346
mp-dtd,PrAg,Cubic,221,54.408,13.044,36.236194703519644
mp-dts,VTc,Cubic,221,254.937,125.024,322.37346406019094
mp-duk,SmMg,Cubic,221,36.23,23.128,57.21029722799618
mp-dum,Ti3Hg,Cubic,221,115.477,47.565,125.46820664422988
mp-duq,SrMg,Cubic,221,19.806,11.488,28.880235128197896
mp-duz,NpAl3,Cubic,221,95.504,53.34,134.9047533632287
mp-dvd,Mn3Rh,Cubic,221,238.125,151.231,374.4277845520942
mp-dwa,BaTe,Cubic,221,31.625,14.228,37.11762737963209
mp-dwp,LaZn,Cubic,221,49.02,26.359,67.05760971981155
mp-dwv,ErAg,Cubic,221,69.968,16.924,46.98381984587441
mp-ftrdu,TaO3,Cubic,221,187.237,73.013,193.8427028582502
mp-dxk,GdMg,Cubic,221,216.967,21.921,63.62039657294202
mp-dxn,Na3N,Cubic,221,21.088,11.725,29.675168358025843
mp-dxq,CdAg,Cubic,221,73.469,27.634,73.66597100479356
mp-dyg,AlFe,Cubic,221,170.575,96.914,244.44695451655252
mp-dyp,CsAu,Cubic,221,10.059,6.1370000000000005,15.29957446164014
mp-fwben,MgCu,Cubic,221,80.417,43.487,110.53616556623984
mp-dyz,ScPd3,Cubic,221,143.721,55.443,147.37777714824725
mp-dzc,LaB6,Cubic,221,181.75,134.517,323.6935343286744
mp-dzk,HoGa3,Cubic,221,69.38,43.833,108.6235503803979
mp-dzs,MgAg,Cubic,221,63.271,36.044,90.87546242091236
mp-eaj,ErIr,Cubic,221,140.411,56.862,150.2974357355756
mp-ebn,LiPd,Cubic,221,72.655,24.82,66.84792676648063
mp-ebr,TbPd3,Cubic,221,126.101,45.911,122.82670326533308
mp-ecb,CdAu,Cubic,221,90.157,31.869,85.52927464774756
mp-ecr,BeCo,Cubic,221,196.762,120.555,300.32846471995845
mp-ecw,HoAg,Cubic,221,68.602,18.274,50.35119837558015
mp-ecz,ScPd,Cubic,221,110.671,32.904,89.81129203627128
mp-eds,USi3,Cubic,221,129.573,100.19,238.97549406944853
mp-edu,HfRu,Cubic,221,198.115,98.917,254.40954948489895
mp-eea,ZrRh,Cubic,221,164.388,42.54,117.48575646252408
mp-eel,InTe,Cubic,221,37.644,2.024,5.9650918960297865
mp-eer,ErPd3,Cubic,221,129.717,49.925,132.74488021435923
mp-ky,AlCo,Cubic,221,178.781,123.627,301.40677331242324
mp-lf,TiOs,Cubic,221,248.343,130.443,333.0220195974286
mp-lo,YbPt3,Cubic,221,158.564,68.3,179.17412535478465
mp-bsww,Y3Al,Cubic,221,49.823,32.502,80.09036777288689
mp-bsxb,InAg3,Cubic,221,77.989,14.93,42.1032874241152
mp-bsxj,MgAg3,Cubic,221,77.693,17.218,48.10070702405542
mp-bsxl,AgPt3,Cubic,221,200.369,62.854,170.711740801041
mp-bsxs,TmAg3,Cubic,221,74.075,18.548,51.35745245521715
mp-bsxu,Zr3Ag,Cubic,221,97.309,21.026,58.84005363744715
mp-btbw,ThBi,Cubic,221,73.55,25.236,67.93786632829848
mp-lt,TiFe,Cubic,221,198.715,94.979,245.77900328305773
mp-btmj,PaIr3,Cubic,221,259.63,131.2,336.8580074498127
mp-btmo,YIr,Cubic,221,130.242,46.637,124.99197551233186
mp-btnt,MgPt3,Cubic,221,183.899,78.069,205.17350774573413
mp-btpp,PaRh3,Cubic,221,212.903,92.757,242.98353189211804
mp-btqj,SmPt3,Cubic,221,160.432,64.907,171.58169840883335
mp-btqu,ZnPt3,Cubic,221,211.734,67.417,182.84481305230858