material_id,formula_pretty,symmetry.crystal_system,symmetry.number,bulk_modulus.vrh,shear_modulus.vrh,youngs_modulus_vrh
mp-btqw,ZrPt3,Cubic,221,221.479,103.854,269.44649956071333
mp-btrf,ScRu,Cubic,221,148.847,55.613,148.36176531303144
mp-btrq,TbTl,Cubic,221,52.636,14.522,39.89688527518414
mp-bujh,InPd3,Cubic,221,143.036,37.467,103.37495216846166
mp-me,MnV,Cubic,221,243.086,120.425,310.0717372831986
mp-bwwj,Nd2O3,Cubic,221,113.322,45.787,121.05691913219081
mp-bwwm,La2O3,Cubic,221,100.901,33.76,91.11777473303157
mp-mt,ScAl,Cubic,221,78.486,43.156,109.41401488798121
mp-nk,TmPd,Cubic,221,97.651,38.402,101.85433543480558
mp-nt,SmPd3,Cubic,221,120.483,50.999,134.07899335916284
mp-oa,AlRh,Cubic,221,194.408,98.81,253.48456282238132
mp-oi,VPt3,Cubic,221,237.489,109.303,284.2940743796926
mp-ol,UO3,Cubic,221,153.034,63.703,167.82265685676305
mp-om,PrSn3,Cubic,221,56.073,17.281,47.013356425876005
mp-on,LuRh,Cubic,221,122.628,52.59,138.03721200359595
mp-or,SiRu,Cubic,221,257.369,93.152,249.37034320590712
mp-pi,ErGa3,Cubic,221,73.646,44.73,111.5966929400605
mp-qb,MnRh,Cubic,221,183.708,85.073,221.09081959833193
mp-qd,YbB6,Cubic,221,154.194,90.805,227.7145569556206
mp-qt,ThSn3,Cubic,221,68.417,30.84,80.4343347268638
mp-qu,SmRh,Cubic,221,101.019,26.534,73.19357419953822
mp-qv,MgAu,Cubic,221,81.405,25.035,68.12169944289693
mp-rs,PrZn,Cubic,221,50.277,26.844,68.36483518784297
mp-sn,ScPt3,Cubic,221,198.156,89.795,234.0339345836323
mp-tb,LuGa3,Cubic,221,68.978,43.84,108.5278365380781
mp-uh,BaCd,Cubic,221,19.668,12.119,30.161950817597685
mp-up,Fe4N,Cubic,221,193.027,56.748,155.04965291611424
mp-uw,SrHg,Cubic,221,27.259,14.296,36.506114891801026
mp-bewqb,AlRu,Cubic,221,203.483,107.621,274.4737915342515
mp-bfqvy,YF3,Cubic,221,100.271,49.604,127.74661091214182
mp-vn,YPd3,Cubic,221,124.541,48.346,128.42064861162785
mp-bggxd,YbRh,Cubic,221,81.33,33.51,88.39032324324324
mp-bggye,YbRu,Cubic,221,73.949,24.812,66.94831038802558
mp-bghle,NdGa3,Cubic,221,68.84,39.27,98.9874331746613
mp-bghqj,DyAl3,Cubic,221,75.98,59.228,141.03692249832852
mp-bgisl,DyB6,Cubic,221,171.865,85.681,220.41472732156276
mp-bgjhh,YbIr,Cubic,221,98.022,35.115,94.1074447492413
mp-bgjhn,VPd3,Cubic,221,175.556,81.744,212.2835298712057
mp-bgjxg,NdPt3,Cubic,221,155.153,60.691,161.0710187342013
mp-bgkpl,PmMg,Cubic,221,40.401,20.482,52.56335912764231
mp-bgkwl,ZrAl3,Cubic,221,102.592,59.186,148.92029967135562
mp-bgkwv,TlPd3,Cubic,221,132.434,24.612,69.52883874912897
mp-bglfu,Ce3Pb,Cubic,221,47.518,28.668,71.60419932018081
mp-bglps,ZrZn,Cubic,221,106.664,46.251,121.23057635504296
mp-bgluv,PrAl3,Cubic,221,67.033,50.75,121.57015811061392
mp-bgmfr,Ti3Sn,Cubic,221,114.12,37.008,100.19341810590244
mp-bgmfy,V3Au,Cubic,221,177.227,45.456,125.62749331267966
mp-bgmnj,KBr,Cubic,221,15.624,7.04,18.36208339516249
mp-bgmyu,Pr3Sn,Cubic,221,45.876,24.736,62.9024822251238
mp-bgnfc,TmB6,Cubic,221,174.157,71.283,188.17540745662345
mp-bgnhd,NdTl,Cubic,221,51.435,17.104,46.19184616910431
mp-bgnkl,HoB6,Cubic,221,173.233,80.601,209.33662718140926
mp-wa,SmCd,Cubic,221,51.061,18.597,49.751034771219004
mp-bhaiu,EuCd,Cubic,221,24.939,14.968,37.4180828423456
mp-bhakt,Zr3Cu,Cubic,221,111.07,20.3,57.40287120590648
mp-bhanl,Cu3Pd,Cubic,221,149.816,48.551,131.4529738895058
mp-wu,TiRu,Cubic,221,215.387,108.631,278.98990287787893
mp-xk,TiCo3,Cubic,221,142.93,94.374,232.04938103539237
mp-xr,YMg,Cubic,221,41.771,20.773,53.457421292937035
mp-bjzjz,CsH,Cubic,221,11.732,7.858,19.271391833511405
mp-yj,LaSn3,Cubic,221,56.392,23.894,62.81076310146578
mp-yl,ScRh3,Cubic,221,185.005,84.21,219.3491172122492
mp-bkfie,TiPd3,Cubic,221,179.376,88.699,228.4430096597626
mp-yw,PrCd,Cubic,221,47.806,19.44,51.3584703238404
mp-yz,FePt3,Cubic,221,263.838,110.344,290.52962045909663
mp-bmhda,GeTe,Cubic,221,46.694,3.555,10.40104241943232
mp-zy,LaPd3,Cubic,221,109.965,45.919,120.92509995636141
mp-bar,Pr3Tl,Cubic,221,40.884,15.285,40.77374062071816
mp-kgw,ZnRh,Cubic,221,171.239,74.335,194.81518570636607
mp-kjc,SmB6,Cubic,221,174.855,106.824,266.25170010880777
mp-bbk,YCu,Cubic,221,70.25,31.833,82.96712568481715
mp-koh,PrTe,Cubic,221,58.128,35.887,89.28647233332224
mp-bbq,SnPd3,Cubic,221,145.871,54.511,145.41897312262765
mp-bbt,TbCd,Cubic,221,54.797,22.082,58.401195808508476
mp-bqzia,TiO,Cubic,221,208.643,46.453,129.7310747625606
mp-bdo,TmAl3,Cubic,221,77.938,59.643,142.56298267207802
mp-lmf,MgPd3,Cubic,221,128.765,41.213,111.71984502044404
mp-bdw,LaCd,Cubic,221,45.631,17.494,46.535125535181066
mp-bek,LuPt3,Cubic,221,182.998,79.492,208.3131416515245
mp-ber,DyPd3,Cubic,221,127.136,48.329,128.68149983827317
mp-lxf,AlF3,Cubic,221,124.366,76.51,190.47077440792873
mp-lzq,W3N4,Cubic,221,344.254,70.766,198.68395462190355
mp-bfl,TmTl3,Cubic,221,46.269,17.128,45.739948619617145
mp-bfr,TiCo,Cubic,221,351.113,68.061,191.79054488764046
mp-bfw,SiNi3,Cubic,221,209.083,104.05,267.73696579648
mp-bfx,AlPd,Cubic,221,155.221,52.682,141.98299298343767
mp-bga,HoPd,Cubic,221,94.522,35.725,95.18334700946785
mp-bge,TbZn,Cubic,221,57.624,23.228,61.42994619071902
mp-mne,KF,Cubic,221,33.925,14.164,37.30085044721794
mp-bgt,ErPd,Cubic,221,95.906,37.403,99.30010384441483
mp-bxbbf,LiPt3,Cubic,221,182.434,85.615,222.10144804137033
mp-bxbbk,LiPd3,Cubic,221,120.749,37.805,102.69725811894455
mp-bxbbn,Ac3Sn,Cubic,221,34.933,20.594,51.63519349564968
mp-bxcjk,PaSi3,Cubic,221,122.743,73.385,183.57084579519673
mp-bxckz,Pa3Si,Cubic,221,108.501,59.249,150.37525923451986
mp-bxcla,Pa3Sb,Cubic,221,104.598,62.028,155.37153944154412
mp-bxclb,Pa3Te,Cubic,221,105.402,60.794,152.97157212732097
mp-bxclc,Pa3Ge,Cubic,221,111.033,56.445,144.79832615827738
mp-bxcoo,PmPd3,Cubic,221,117.777,52.142,136.3103215405218
mp-bxdaf,LiGa3,Cubic,221,39.269,19.567,50.33986567327151
mp-bxdsa,HgPd3,Cubic,221,139.163,29.205,81.8867026084971
mp-bxdsr,Ho3In,Cubic,221,50.028,30.054,75.11948399560337
mp-bxdte,AgAu3,Cubic,221,121.457,25.136,70.54170622864287
mp-bxfhi,ZnAg3,Cubic,221,90.519,29.454,79.71575667998844
mp-bhh,CaB6,Cubic,221,146.893,84.87,213.49347099889832
mp-bxgtm,CrPd3,Cubic,221,152.758,66.576,174.39296841383253
mp-bxhby,CaBi3,Cubic,221,45.159,13.126,35.89976855110596
mp-bxhco,CdPt3,Cubic,221,189.833,50.231,138.47887435980186
mp-bxhiw,Ti3Zn,Cubic,221,110.213,52.136,135.10439478022334
mp-bxhjj,AcAg,Cubic,221,43.963,16.405,43.77059850701984
mp-bxhms,AcMg,Cubic,221,30.934,19.546,48.43631997009292
mp-bhj,ErCd,Cubic,221,59.501,29.491,75.92861293595008
mp-bxivl,Pm3Pb,Cubic,221,44.905,22.668,58.209329215989015
mp-bxixs,LaBi3,Cubic,221,53.973,15.364,42.09749692863952
mp-bxjto,TaRu3,Cubic,221,276.055,139.6,358.3881438159057
mp-bhr,AlOs,Cubic,221,236.689,124.889,318.62597872103436
mp-bhx,NpSn3,Cubic,221,54.061,16.852,45.797323137933915
mp-bii,ScPt,Cubic,221,137.028,37.91,104.12741221486256
mp-bis,BaZn,Cubic,221,20.356,14.528,35.20804952642997
mp-bjf,YCd,Cubic,221,56.99,28.662,73.64063086078383
mp-bjm,CoPt3,Cubic,221,227.99,87.071,231.7151171079099
mp-bjw,ScGa3,Cubic,221,73.065,45.318,112.66152147531503
mp-bkr,NbZn3,Cubic,221,118.284,74.397,184.5077629348001
mp-bks,BaB6,Cubic,221,141.127,129.899,298.2039935602227
mp-cdhkk,Si3N2,Cubic,221,142.078,72.85,186.64882204198088
mp-cdhkw,Ge3N2,Cubic,221,99.291,52.658,134.2425899620861
mp-cdhlf,V3Ag,Cubic,221,159.817,28.888,81.73903923169382
mp-cdhnd,ZnGe3,Cubic,221,61.403,5.969,17.344963996887124
mp-cdhpb,ZnHg3,Cubic,221,21.227,3.365,9.58833778301465
mp-cdhut,Zr3Pt,Cubic,221,128.477,16.539,47.57551540413465
mp-cdhva,Tm3P,Cubic,221,60.974,21.319,57.28106674957525
mp-cdhyi,YbTh3,Cubic,221,44.763,31.315,76.18040690442261
mp-cdhzz,ZrH3,Cubic,221,129.755,78.184,195.32159504031458
mp-cdiap,U3C,Cubic,221,177.966,70.859,187.6694856711042
mp-cdicq,TbY3,Cubic,221,39.722,23.922,59.76788518953371
mp-cdidt,Tl3Hg,Cubic,221,26.92,8.347,22.6953119283558
mp-cdike,YbMg,Cubic,221,24.014,13.027,33.09635004525738
mp-cdjjg,ScRu3,Cubic,221,203.337,64.747,175.60243324421498
mp-cdjka,La3Hf,Cubic,221,40.645,21.816,55.515452970761935
mp-cdjlk,MgCr,Cubic,221,57.229,33.265,83.59764317986652
mp-cdjql,LiTl3,Cubic,221,26.317,7.189,19.767079370791738
mp-cdjsa,NdTm3,Cubic,221,40.739,23.677,59.50344583738879
mp-cdjwg,SbRh3,Cubic,221,205.763,100.722,259.7783989019667
mp-cdkem,LuTh3,Cubic,221,51.667,34.157,83.96741068841919
mp-cdkie,LuRu3,Cubic,221,191.106,58.922,160.29218269644437
mp-cdkpe,PdAu3,Cubic,221,143.059,22.521,64.19440788092929
mp-cdkqj,PaAl3,Cubic,221,93.654,66.056,160.44607950019883
mp-cdkyc,Nd3Sm,Cubic,221,34.408,19.689,49.60526557809182
mp-cdlil,RuRh3,Cubic,221,265.771,166.99,414.2161681649855
mp-cdlju,PtRh3,Cubic,221,252.972,132.714,338.8808520036338
mp-cdlkt,Pt3Rh,Cubic,221,248.019,78.168,212.20997017604677
mp-cdlnd,Ru3I,Cubic,221,200.1,82.095,216.65587453014746
mp-cdlth,Hg3Pd,Cubic,221,68.071,5.286,15.45787690633368
mp-cdltr,K3Tl,Cubic,221,5.574,2.908,7.431621395822718
mp-cdmbj,KPr3,Cubic,221,21.468,6.489,17.685140535736952
mp-cdmcv,NdY3,Cubic,221,38.765,21.65,54.7563177353293
mp-cdmga,Rb3In,Cubic,221,4.908,2.719,6.885493779739723
mp-cdmua,RbF3,Cubic,221,20.725,3.405,9.68462374199451
mp-cdmwt,RbCa3,Cubic,221,11.416,5.159,13.450815743395841
mp-cdmyx,Mn3S,Cubic,221,179.718,51.052,139.90821852709053
mp-cdnbr,InSb3,Cubic,221,44.916,8.082,22.87404612476371
mp-cdngo,Pr3Hf,Cubic,221,43.976,24.977,63.00307171855581
mp-cdngp,Pr3Er,Cubic,221,34.921,19.5,49.319873976968196
mp-cdnho,NdGe3,Cubic,221,69.174,22.539,60.992584897049035
mp-cdnmr,PrSm3,Cubic,221,35.965,21.072,52.88709762962618
mp-cdnug,NaLa3,Cubic,221,21.316,6.803,18.446590606493196
mp-cdnuw,Li3Cr,Cubic,221,22.421,6.546,17.896337763687352
mp-cdnwv,PrGe3,Cubic,221,69.29,22.594,61.13685582129965
mp-cdnzu,PrDy3,Cubic,221,38.535,23.324,58.224798710132504
mp-cdoku,LiLa3,Cubic,221,30.515,10.268,27.697368508933046
mp-cdorc,HoTh3,Cubic,221,52.284,33.704,83.22812938978568
mp-cdowj,Hf3Au,Cubic,221,122.505,10.695,31.17770226858095
mp-cdoye,NiAg3,Cubic,221,127.322,28.17,78.70547003920652
mp-cdoyq,NiAu3,Cubic,221,144.369,20.114,57.664015114039294
mp-cdozf,Ni3Bi,Cubic,221,136.809,40.924,111.64026144619154
mp-cdpbb,Ni3Sb,Cubic,221,164.639,57.89,155.45030307698164
mp-cdpbk,NaMg3,Cubic,221,24.546,8.351,22.501223505592215
mp-blp,LuIn3,Cubic,221,54.557,25.507,66.20362088086354
mp-cdppo,PrAs3,Cubic,221,75.341,20.306,55.89625709518571
mp-cdpsw,OsAu3,Cubic,221,183.641,15.146,44.222240175667636
mp-cdqcz,HfH3,Cubic,221,141.255,84.832,212.04705776872456
mp-cdqdl,Zr3Tl,Cubic,221,96.017,46.953,121.1166905738439
mp-cdqth,ZnMo3,Cubic,221,217.767,57.605,158.81173082657904
mp-cdrdx,Mg3Cd,Cubic,221,37.897,13.932,37.23332813050939
mp-cdref,Mg3Ga,Cubic,221,41.632,12.543,34.194890707877676
mp-cdreg,Mg3Hg,Cubic,221,40.931,13.677,36.91888021543196
mp-cdrek,Mg3Mn,Cubic,221,44.054,20.217,52.6040823341799
mp-cdrel,Mg3Mo,Cubic,221,72.683,52.21,126.37142470741031
mp-cdres,Mg3Sn,Cubic,221,41.535,20.038,51.7861560531792
mp-cdrfb,Mg3Re,Cubic,221,80.582,30.25,80.65725047427168
mp-cdrfc,Mg3Ta,Cubic,221,69.102,42.454,105.7131116752082
mp-cdrmo,Sc3Al,Cubic,221,64.254,43.099,105.67049369755915
mp-cdrms,SmAs3,Cubic,221,77.887,17.374,48.51466385962116
mp-cdrmx,SmTh3,Cubic,221,52.79,34.028,84.02916392062288
mp-cdrne,SmTm3,Cubic,221,41.344,25.23,62.89599549784942
mp-cdryb,Sm3Hf,Cubic,221,47.667,28.35,70.97848889122328
mp-cdrzb,SmY3,Cubic,221,39.02,22.803,57.255725531412885
mp-cdsem,Th3Mg,Cubic,221,52.8,28.975,73.48322881921283
mp-cdsgf,Th3Be,Cubic,221,62.166,29.253,75.86003301027573
mp-cdshj,Th3Au,Cubic,221,72.964,15.655,43.830288939956596
mp-cdsqf,Tl3Cd,Cubic,221,27.4,6.46,17.96792240018047
mp-cdsvz,Dy3Y,Cubic,221,40.892,25.48,63.29378114959908
mp-cdswd,YGa3,Cubic,221,69.461,42.645,106.20121701563174
mp-cdtpw,RbYb3,Cubic,221,9.676,5.944,14.801192268100193
mp-cdtqf,Yb3V,Cubic,221,20.968,14.683,35.71291963859925
mp-cdtqq,Yb3Mg,Cubic,221,18.16,9.45,24.1593618019709
mp-cdtqx,Yb3Ti,Cubic,221,20.615,14.63,35.49365217391305
mp-cdtrs,YbP3,Cubic,221,77.34,35.155,91.58787049686535
mp-cdtsj,YbPr3,Cubic,221,28.124,14.306,36.695894687772345
mp-cdtsw,TmTh3,Cubic,221,52.713,33.632,83.20127935923574
mp-cdtut,YbDy3,Cubic,221,33.683,19.241,48.489911272757496
mp-cduad,TiOs3,Cubic,221,308.449,110.247,295.5310595918864
mp-cdure,TmSi3,Cubic,221,89.137,32.813,87.6801036192976
mp-cdvcs,Sr3Cr,Cubic,221,14.914,8.285,20.97162596413148
mp-cdvnb,Zn3Co,Cubic,221,118.899,45.999,122.23393306365098
mp-cdvto,ScOs3,Cubic,221,258.846,85.493,231.04237516052208
mp-blu,TmPd3,Cubic,221,132.296,50.923,135.39681444180695
mp-cdwtc,Ge2O3,Cubic,221,178.568,103.527,260.28068730083487
mp-cdxqv,K3In,Cubic,221,6.339,3.261,8.350988015082144
mp-cdxuz,Na3Tl,Cubic,221,11.861,4.995,13.140402558036376
mp-cdxvg,K3Cd,Cubic,221,5.074,2.625,6.716717095310135
mp-cdymo,Ga3B,Cubic,221,65.049,27.884,73.1935777716999
mp-cdymv,Ga3Bi,Cubic,221,43.085,3.493999999999999,10.20611010252431
mp-cdywv,Pa3Zn,Cubic,221,93.69,38.201,100.89067033961744
mp-cdyyl,BeAu3,Cubic,221,140.648,30.875,86.30945918788743
mp-cdzae,Al3Tl,Cubic,221,49.964,10.322,28.970974271911317
mp-cdzaf,Al3Zn,Cubic,221,78.655,33.527,88.0679042977157
mp-cdzak,Be3Fe,Cubic,221,151.52,99.945,245.79218870884839
mp-cdzay,Er3As,Cubic,221,56.983,18.755,50.70238627018934
mp-cearn,Cr3Cu,Cubic,221,220.871,72.044,194.9370562262389
mp-cearv,BeAg3,Cubic,221,103.296,38.839,103.54007603655582
mp-blx,TmCu,Cubic,221,74.896,28.832,76.65909296307983
mp-cebnm,Ag3Ge,Cubic,221,83.095,17.741,49.68690522645735
mp-cebnp,CoHg3,Cubic,221,63.448,11.284,31.95749145951952
mp-ceboe,AcEr3,Cubic,221,37.45,20.758,52.56245980707396
mp-cebtr,Ag3Hg,Cubic,221,79.37,22.963,62.82978243633006
mp-bly,CeZn,Cubic,221,35.292,21.92,54.48062349369308
mp-blz,ZnCu,Cubic,221,116.179,45.918,121.718233760505
mp-cevrj,TiN,Cubic,221,258.929,68.67,189.27738473985076
mp-cevtb,TiRu3,Cubic,221,247.859,100.073,264.6072937391098
mp-cevuj,TiAl3,Cubic,221,102.749,65.989,163.059496812172
mp-cewci,NbNi3,Cubic,221,198.862,31.581,89.97981014284417
mp-cewgk,Pd3N,Cubic,221,133.636,38.555,105.5174697756125
mp-cewgo,Pd3Au,Cubic,221,159.176,46.576,127.31067189718071
mp-cewns,YTi,Cubic,221,48.406,17.122,45.94842791671801
mp-brc,Mo3Ir,Cubic,223,282.393,107.926,287.1913792326498
mp-qrf,Zr3Au,Cubic,223,117.118,53.078,138.33599427345015
mp-rwh,Ti3As,Cubic,223,126.897,44.714,120.04243514298139
mp-buz,V3Ge,Cubic,223,184.157,42.108,117.37775233232253
mp-bvj,Cr3Ga,Cubic,223,217.363,121.695,307.6671429817624
mp-bvk,Mo3Pt,Cubic,223,265.997,83.581,226.9702954642389
mp-bwy,Cr3Ru,Cubic,223,265.536,105.327,279.0810784014369
mp-bxb,SiMo3,Cubic,223,251.363,129.281,331.08226454033985
mp-cav,Nb3Ge,Cubic,223,171.519,20.09,58.005282719252136
mp-cci,Ti3Sb,Cubic,223,119.611,20.295,57.625781279673355
mp-cec,Nb3Ir,Cubic,223,218.977,102.506,266.01035669581546
mp-chl,Nb3Rh,Cubic,223,201.402,86.842,227.78645239693915
mp-chv,V3Sb,Cubic,223,171.734,80.374,208.58217363359165
mp-cis,V3Rh,Cubic,223,216.564,105.892,273.15501094782314
mp-ciz,V3Co,Cubic,223,208.895,109.487,279.6107183986894
mp-cjs,Pt3O4,Cubic,223,213.174,58.894,161.78327243934845
mp-cjx,Cr3Ir,Cubic,223,275.177,107.47,285.2724163318153
mp-cks,Zr3Hg,Cubic,223,105.27,58.772,148.6519799670032
mp-cma,V3Pd,Cubic,223,194.62,77.739,205.8136085755873
mp-cqs,Ti3Au,Cubic,223,137.742,71.311,182.44773434846047
mp-cwi,Nb3Os,Cubic,223,232.709,84.517,226.17026256765524
mp-cze,V3Ir,Cubic,223,239.084,123.848,316.83590189989303
mp-daz,Nb3Sb,Cubic,223,173.865,82.544,213.79783963624266
mp-bepp,Cr3Ge,Cubic,223,229.213,133.08,334.50303253610554
mp-bfow,V3Sn,Cubic,223,162.896,5.122,15.206617541159552
mp-dhb,V3Pt,Cubic,223,219.134,96.288,251.96005164988256
mp-bhka,V3Ga,Cubic,223,168.668,52.731,143.26342679803486
mp-dlz,Ti3Pt,Cubic,223,157.855,56.112,150.5031138599562
mp-dmo,Ti3Hg,Cubic,223,118.442,68.833,172.98810982202426
mp-bkml,UH3,Cubic,223,108.814,61.069,154.33486918822948
mp-dut,V3Si,Cubic,223,192.13,52.199,143.59294360862188
mp-jz,AlMo3,Cubic,223,224.498,120.006,305.570211584121
mp-dyl,Nb3Pt,Cubic,223,203.6,81.716,216.22085034858398
mp-ebw,Nb3Au,Cubic,223,184.705,64.46,173.228401891444
mp-lg,V3As,Cubic,223,195.129,111.483,280.9449348702054
mp-btoe,SnMo3,Cubic,223,216.251,102.767,266.14221664493294
mp-btog,ZrMo3,Cubic,223,193.868,33.7,95.56278587494961
mp-btro,Zr3Sn,Cubic,223,103.006,39.314,104.63064247901426
mp-qa,Cr3Os,Cubic,223,279.999,116.816,307.6622795217038
mp-re,Cr3Pt,Cubic,223,242.7,85.42,229.35257399941
mp-uv,Ta3Sb,Cubic,223,187.381,85.474,222.57882721732133
mp-bgigs,Nb3Bi,Cubic,223,158.674,66.883,175.93011351525587
mp-bgkcf,Ta3Au,Cubic,223,200.678,65.069,176.16657553331345
mp-bgkgs,Nb3Tl,Cubic,223,154.29,26.551,75.33183927538867
mp-bgmhz,Nb3Te,Cubic,223,170.078,85.959,220.6963403092623
mp-bklop,Ba4Si23,Cubic,223,74.091,34.907,90.507235527646
mp-bmgpd,VGe3,Cubic,223,86.695,19.052,53.25491876748692
mp-kry,V3Ni,Cubic,223,202.988,96.268,249.38068473353454
mp-bcb,Cr3Si,Cubic,223,246.829,154.873,384.2525123447552
mp-bev,Mo3Os,Cubic,223,290.754,122.068,321.24730567115546
mp-bgh,V3Au,Cubic,223,186.748,75.505,199.61284981966153
mp-cgdcp,SiO2,Cubic,224,275.987,133.326,344.5029266576995
mp-pxy,Cd3As2,Cubic,224,45.328,14.071,38.25459059678118
mp-roq,Ag2O3,Cubic,224,125.939,21.458,60.91438622002379
mp-bfiv,Cd3P2,Cubic,224,53.243,21.626,57.14150733092553
mp-bhwl,Bi2O3,Cubic,224,107.798,21.406,60.23119458236659
mp-bwsl,Tb2O3,Cubic,224,134.172,50.448,134.48835118022626
mp-nx,Cu2O,Cubic,224,111.715,7.888,23.119849343940675
mp-bmhyd,Y2O3,Cubic,224,135.747,57.501,151.15977084705062
mp-bmyzg,Sm2O3,Cubic,224,126.271,52.094,137.38846959088622
mp-bmznw,Ho2O3,Cubic,224,137.137,54.669,144.76974741889805
mp-lpt,Zn3As2,Cubic,224,56.943,22.843,60.446221141930685
mp-lpu,Zn3P2,Cubic,224,70.323,30.525,79.9998599344083
mp-lyz,Mg3P2,Cubic,224,57.133,38.966,95.24493286430727
mp-bkl,Au2S,Cubic,224,66.577,5.8,16.908979180756187
mp-bmm,BaTe,Cubic,225,28.286,16.564,41.57642065823983
mp-cezre,B12W,Cubic,225,238.944,123.5,316.04919960206206
mp-ovk,ScC,Cubic,225,153.13,75.434,194.3833406503822
mp-cfamv,GeC,Cubic,225,160.406,96.772,241.70882694856311
mp-cfanr,TcB,Cubic,225,282.66,38.743,111.15068338139419
mp-cfaoz,ErH,Cubic,225,70.446,43.134,107.46785452230502
mp-cfapa,TlN,Cubic,225,107.027,48.73,126.92654190924551
mp-cfapf,RbSb,Cubic,225,8.399000000000001,2.582,7.026025486878576
mp-owp,TeAs,Cubic,225,62.239,28.154,73.3951592071522
mp-ows,ZrAs,Cubic,225,117.397,51.514,134.82196535093695
mp-cfhml,CdC,Cubic,225,102.325,29.038,79.58567123891041
mp-bmt,DySb,Cubic,225,60.478,34.856,87.7164478801609
mp-cfixp,Fe3Ni,Cubic,225,179.994,72.293,191.2714975754359
mp-cfjnv,Cr3Ni,Cubic,225,155.147,100.224,247.3992139375779
mp-cfjoc,Cr3Fe,Cubic,225,227.443,93.238,246.08702266341913
mp-cfjrs,CeH3,Cubic,225,41.701,62.301,124.7685535474163
mp-cfkas,AuN,Cubic,225,172.053,29.649,84.11528334689122
mp-cfkby,UC2,Cubic,225,197.231,100.403,257.5123347584728
mp-cfkcj,AgC,Cubic,225,133.032,18.99,54.38234985146596
mp-cfkdh,TiO2,Cubic,225,246.526,83.386,224.81099212602254
mp-cfkhl,RuO2,Cubic,225,284.209,186.658,459.40136891997867
mp-cfkhm,MgTe,Cubic,225,46.024,30.655,75.25642890586569
mp-cfkja,OsN2,Cubic,225,334.82,68.185,191.5520188878893
mp-cfkmo,CdN,Cubic,225,119.78,45.938,122.19287195455959
mp-cfkms,CuN,Cubic,225,203.809,67.018,181.19352940621567
mp-cfkmz,FeN,Cubic,225,193.323,88.013,229.2493432323027
mp-cfksr,FeH,Cubic,225,173.813,87.064,223.82091014834768
mp-cfkss,CoN,Cubic,225,297.425,71.779,199.30400338051604
mp-cfkst,CrTe,Cubic,225,60.543,29.155,75.36710796360255
mp-cfkyb,MnSb,Cubic,225,69.337,29.705,77.97918636103586
mp-cfkyf,,Cubic,225,34.757,18.325,46.75762851153382
mp-cflim,NiN,Cubic,225,258.337,85.169,230.20848610407123
mp-cflkf,PdC,Cubic,225,215.846,47.559,132.91494457032616
mp-cflkr,PaN,Cubic,225,221.916,88.72,234.861501985505
mp-cflku,PdN,Cubic,225,211.396,53.9,149.03355326644265
mp-cflmc,NiC,Cubic,225,256.077,47.733,134.8220153940615
mp-cflrx,Ca2Si,Cubic,225,36.951,24.717,60.631856627572475
mp-cflst,Ca2Ge,Cubic,225,34.833,23.956,58.465097754077306
mp-cflsu,Ca2Pb,Cubic,225,28.076,19.418,47.34015699592844
mp-cfltz,RuC,Cubic,225,321.211,44.583,127.83466054595445
mp-cflvi,SnC,Cubic,225,130.966,99.677,238.51937641577425
mp-cflvp,Be2Si,Cubic,225,98.66,50.046,128.4234284128938