material_id,formula_pretty,symmetry.crystal_system,symmetry.number,bulk_modulus.vrh,shear_modulus.vrh,youngs_modulus_vrh
mp-bglmr,Bi2Pd,Tetragonal,139,52.094,15.119,41.35613370983833
mp-bglxz,TaNi3,Tetragonal,139,221.34,97.022,253.95923657301438
mp-bgmbi,ZrIn3,Tetragonal,139,75.835,48.163,119.24477975318135
mp-bgmss,TlPd3,Tetragonal,139,133.935,41.898,113.82496325244588
mp-bgnik,Be12V,Tetragonal,139,129.504,147.448,320.65070551533694
mp-bmywz,K3B17,Tetragonal,139,97.13,68.913,167.19726788286525
mp-bbe,HgF,Tetragonal,139,31.037,11.783,31.378160228421073
mp-kqm,Al2Os,Tetragonal,139,190.012,142.279,341.579857411398
mp-bco,Ti2Cu,Tetragonal,139,130.928,54.059,142.55685054482223
mp-bdf,La2Sb,Tetragonal,139,49.613,28.914,72.63220613998077
mp-lzh,Ba2Cd,Tetragonal,139,14.827,9.934,24.36134819443168
mp-lzi,Ba2Hg,Tetragonal,139,16.104,9.961,24.77489568067544
mp-bxaqn,ThH3,Tetragonal,139,101.664,30.932,84.25131170145627
mp-bxbcx,PaO3,Tetragonal,139,252.209,54.533,152.60049875856797
mp-bxcde,LiCu3,Tetragonal,139,92.453,43.619,113.07431245443611
mp-bxcfk,LiAg3,Tetragonal,139,66.506,24.289,64.95899639421465
mp-bxcio,Pt3W,Tetragonal,139,283.476,112.353,297.7254549601623
mp-bxcmn,PmF3,Tetragonal,139,136.242,46.704,125.74362099993412
mp-bxdrp,Ir3Rh,Tetragonal,139,324.498,203.512,504.9703508597238
mp-bxffi,Na3Sn,Tetragonal,139,17.492,5.7219999999999995,15.478246950067012
mp-bxffy,Na3In,Tetragonal,139,13.554,5.917,15.496063934391033
mp-bxfws,TmF3,Tetragonal,139,152.068,39.096,108.02999142337976
mp-bxgck,Zn3Rh,Tetragonal,139,128.64,48.806,129.97988286874948
mp-bxgcx,Zn3Pt,Tetragonal,139,137.109,52.461,139.58075077621672
mp-bxgcz,Zn3Pd,Tetragonal,139,111.133,44.23,117.14861228878078
mp-bxgde,Zn3Ir,Tetragonal,139,146.356,52.945,141.74293317452992
mp-bxgfp,ZnPd3,Tetragonal,139,151.261,36.377,101.0318927962298
mp-bxgks,AcTe3,Tetragonal,139,47.939,20.884,54.70775941858276
mp-bxgkw,Be3Ru,Tetragonal,139,180.438,123.56,301.7929314727302
mp-bxgwe,PaBi3,Tetragonal,139,64.281,26.866,70.74248262019307
mp-bxgxw,Ti3Tl,Tetragonal,139,108.872,59.015,149.9509368282114
mp-bxgzj,LiMg2,Tetragonal,139,30.17,19.141,47.39907278547391
mp-bxhbd,CdPd3,Tetragonal,139,135.78,42.281,114.91506762362077
mp-bxjse,Al3Cr,Tetragonal,139,106.001,84.189,199.6983125
mp-bhl,TaAl3,Tetragonal,139,132.414,103.376,246.08756971583125
mp-bhp,VPd3,Tetragonal,139,190.816,75.46,200.0141659618341
mp-nft,CrSi2,Tetragonal,139,189.969,171.077,394.73718665585227
mp-cdhod,ZnRh3,Tetragonal,139,209.272,91.273,239.06352246244896
mp-cdhzh,Ti3Ga,Tetragonal,139,116.433,64.387,163.09699660853886
mp-cdiaa,Zr3Zn,Tetragonal,139,94.083,40.008,105.12309732915034
mp-cdiek,TcAs3,Tetragonal,139,130.278,40.429,109.91687985753475
mp-cdije,TcPt3,Tetragonal,139,261.344,134.934,345.3639434581911
mp-cdikf,U3Pa,Tetragonal,139,96.534,34.507,92.49940187406087
mp-cdjcm,Cu3Si,Tetragonal,139,136.43,53.369,141.63821308998638
mp-cdjeg,SeBr3,Tetragonal,139,15.512,9.245,23.13827217152794
mp-cdjfo,La3Dy,Tetragonal,139,29.518,15.277,39.0877327002533
mp-cdjfs,La3Er,Tetragonal,139,29.595,16.724,42.21934640646769
mp-cdjjy,ScRu3,Tetragonal,139,203.422,59.908,163.65816427375577
mp-cdjmq,ScCu3,Tetragonal,139,103.118,39.197,104.3670688478874
mp-cdjpu,NaAg3,Tetragonal,139,52.516,21.232,56.1314319722564
mp-cdjqb,Mn3Zn,Tetragonal,139,199.466,65.253,176.51113926144913
mp-cdjss,KLa3,Tetragonal,139,19.467,6.112,16.5988364515679
mp-cdkro,Ni3I,Tetragonal,139,140.931,23.914,67.90136578562684
mp-cdlig,SBr3,Tetragonal,139,16.635,8.547,21.891707811537675
mp-cdlii,S3Br,Tetragonal,139,23.338,10.805,28.081315161038862
mp-cdllo,Re3W,Tetragonal,139,342.858,146.125,383.84396960412835
mp-cdltg,Pt3Rh,Tetragonal,139,249.556,79.874,216.5217013693934
mp-cdmqo,RbSr3,Tetragonal,139,8.532,4.504,11.490137940199334
mp-cdmrt,RbPr3,Tetragonal,139,20.132,7.573,20.18768444437906
mp-cdmxo,RbCa3,Tetragonal,139,11.18,5.022,13.103927182200096
mp-cdnmo,Li3Be,Tetragonal,139,26.474,14.376,36.51796430627518
mp-cdnpk,Li3Al,Tetragonal,139,26.875,18.203,44.55063974784474
mp-cdnpy,Li3Cu,Tetragonal,139,31.489,12.521,33.166933871088354
mp-cdnqu,Li3Cd,Tetragonal,139,22.645,8.36,22.33186709482928
mp-cdnqw,LiAl3,Tetragonal,139,62.466,39.623,98.12225680443659
mp-cdnqz,LiAu3,Tetragonal,139,102.226,31.714,86.22531938107284
mp-cdnwh,Li3Hg,Tetragonal,139,25.641,15.939,39.60960447761194
mp-cdnwp,Li3In,Tetragonal,139,24.671,16.433,40.34193758706853
mp-cdnxj,Li3Ca,Tetragonal,139,14.299,7.417,18.97088577731844
mp-cdnyo,Hf3Tl,Tetragonal,139,104.481,55.501,141.45561339661305
mp-cdoag,NaAl3,Tetragonal,139,48.882,25.378,64.90226110310189
mp-cdoke,Li3Ag,Tetragonal,139,25.865,12.498,32.29270786853584
mp-cdokp,Hf3Bi,Tetragonal,139,102.841,29.873,81.70759328419959
mp-cdozy,Ni3Au,Tetragonal,139,173.428,60.99,163.77192766234168
mp-cdpby,NaNi3,Tetragonal,139,96.01,36.546,97.29318600266193
mp-cdpfv,NaPd3,Tetragonal,139,97.437,36.663,97.73111120939649
mp-cdpjd,NpAs3,Tetragonal,139,99.455,30.199,82.27004146832886
mp-cdplw,NaRu3,Tetragonal,139,172.715,41.644,115.63801921795533
mp-cdprc,Pm2Mg,Tetragonal,139,36.536,16.61,43.27248601625758
mp-cdpvt,NpH3,Tetragonal,139,95.25,58.63,145.94508246704223
mp-cdpwl,Na3Tl,Tetragonal,139,12.052,5.181,13.594907903331155
mp-cdreb,Mg3Cr,Tetragonal,139,44.069,22.719,58.16217096549322
mp-cdree,Mg3Ga,Tetragonal,139,40.626,19.659,50.7852985862354
mp-cdreh,Mg3In,Tetragonal,139,38.832,20.553,52.412107085786836
mp-cdreo,Mg3Os,Tetragonal,139,85.241,31.04,83.04044022415721
mp-cdrer,Mg3Pb,Tetragonal,139,36.348,18.965,48.46579834230406
mp-cdrno,Si3Ag,Tetragonal,139,84.687,20.54,57.010858736858204
mp-cdrok,Sc3Sb,Tetragonal,139,66.598,39.34,98.60449739476613
mp-cdryc,Sm3I,Tetragonal,139,32.856,7.791,21.66088308464728
mp-cdser,TlAu3,Tetragonal,139,86.313,9.318,26.98300810789653
mp-cdsgk,SrAc3,Tetragonal,139,20.33,12.317,30.74251422101573
mp-cdskh,Ti2Ag,Tetragonal,139,115.12,38.471,103.84526961084434
mp-cdtzs,YbOs3,Tetragonal,139,224.333,46.685,130.96980750579422
mp-cdvmw,Tl3V,Tetragonal,139,37.409,4.946,14.211671852730577
mp-cdvns,Ti3Nb,Tetragonal,139,122.685,24.306,68.40087187564514
mp-cdvzv,PrH3,Tetragonal,139,83.047,42.938,109.8772892744771
mp-cdwhp,TcAg3,Tetragonal,139,104.348,34.212,92.5242011196351
mp-cdwyt,KNd3,Tetragonal,139,22.351,7.949,21.319603357243807
mp-cdxfx,NaCu3,Tetragonal,139,67.875,23.089,62.2127123821202
mp-cdxpt,Na3Mg,Tetragonal,139,11.333,4.612,12.183319882934914
mp-cdxqu,K3In,Tetragonal,139,6.456,3.082,7.976682761692651
mp-ceakh,CsCa3,Tetragonal,139,9.811,4.65,12.046778452601005
mp-cearh,ErRu3,Tetragonal,139,181.137,33.566,94.83983049237663
mp-ceatw,Ce3Zn,Tetragonal,139,34.023,19.568,49.260164061921955
mp-ceauu,BaTh3,Tetragonal,139,37.503,24.562,60.48207260470851
mp-cebex,AcLa3,Tetragonal,139,25.05,12.805,32.82232107327611
mp-cebni,AcF3,Tetragonal,139,114.006,34.219,93.32027904219946
mp-cebnk,Co3Bi,Tetragonal,139,147.231,46.944,127.30208432026228
mp-ceboa,Ag3Pd,Tetragonal,139,105.215,33.362,90.51865856558751
mp-bmc,HoAu2,Tetragonal,139,100.832,40.982,108.2767257757411
mp-ort,Ca2Sb,Tetragonal,139,34.964,25.74,62.00441117031048
mp-cewcy,ScAl3,Tetragonal,139,82.594,67.287,158.75101105472137
mp-pap,P2Ir,Monoclinic,14,193.222,129.322,317.1995849802817
mp-bvh,CuF2,Monoclinic,14,66.947,26.442,70.09724953472103
mp-bvz,Sb2Ir,Monoclinic,14,117.399,72.314,179.98667071995777
mp-vdl,CoP2,Monoclinic,14,164.337,122.955,295.2346436572797
mp-wlu,Lu4C7,Monoclinic,14,128.084,76.958,192.3501143687257
mp-xdx,As2Ir,Monoclinic,14,152.046,96.953,239.87344314407574
mp-civ,As2O3,Monoclinic,14,9.944,8.605,20.035722871191822
mp-cjg,Ag2Te,Monoclinic,14,52.909,14.653,40.243858536163344
mp-xpq,As2Rh,Monoclinic,14,134.441,78.547,197.2304460601407
mp-yke,Al9Co2,Monoclinic,14,107.487,72.22,177.01485569358542
mp-djz,SiRh,Monoclinic,14,184.478,90.948,234.3348297997151
mp-biiz,Bi2Rh,Monoclinic,14,82.795,36.378,95.192312870703
mp-bikr,I2O5,Monoclinic,14,17.477,14.793,34.61316418243485
mp-biks,Bi2O3,Monoclinic,14,53.426,30.036,75.88685027901258
mp-dze,Sb2Rh,Monoclinic,14,104.082,59.183,149.25857984702324
mp-eal,CoAs2,Monoclinic,14,121.796,90.498,217.5996842894934
mp-boeu,FeP4,Monoclinic,14,136.947,112.471,264.8956919256581
mp-gfddh,RhN2,Monoclinic,14,213.938,108.263,277.91030420343515
mp-efy,ZrO2,Monoclinic,14,183.109,85.963,222.99326402587792
mp-bxan,TcO2,Monoclinic,14,255.97,111.765,292.69489692215876
mp-no,HfO2,Monoclinic,14,204.904,100.522,259.18264371100923
mp-ou,MgP4,Monoclinic,14,57.463,37.098,91.58497360695412
mp-qo,TiO2,Monoclinic,14,157.994,88.246,223.185338894541
mp-bftrh,BF3,Monoclinic,14,5.472,3.883,9.420660328094982
mp-bgmgh,NdSe2,Monoclinic,14,65.98,36.511,92.47545124567608
mp-yr,As2S3,Monoclinic,14,5.969,3.185,8.112146074340984
mp-bmche,SiO2,Monoclinic,14,18.076,35.939,64.84301658034535
mp-kti,ZnAs2,Monoclinic,14,51.454,29.777,74.88534108472405
mp-bqyel,Al2O3,Monoclinic,14,106.927,57.732,146.77959825950495
mp-bdb,CoSb2,Monoclinic,14,98.829,63.743,157.39086839796798
mp-bqyza,Al2O3,Monoclinic,14,182.223,84.014,218.46719841505157
mp-brtsq,MnP4,Monoclinic,14,117.205,89.323,213.68518915357714
mp-lsa,CdP4,Monoclinic,14,55.424,28.159,72.24238801425699
mp-mdk,AgP2,Monoclinic,14,63.049,25.878,68.29084152075342
mp-biz,As2Se3,Monoclinic,14,7.518,4.43,11.108162614882891
mp-bjr,CuP2,Monoclinic,14,87.682,51.586,129.38440103994506
mp-oeu,LiP,Monoclinic,14,41.365,26.861,66.24412004160153
mp-bns,Ta2B,Tetragonal,140,248.908,179.27,433.69140020345714
mp-chwgl,Mg2Cu,Tetragonal,140,59.925,25.405,66.77820267569939
mp-cjabt,FeSb2,Tetragonal,140,65.924,24.115,64.48244079193462
mp-bqv,BW2,Tetragonal,140,329.552,157.907,408.4791755673261
mp-qru,Ta2Be,Tetragonal,140,185.869,111.426,278.6047216594697
mp-bsp,Zr2Fe,Tetragonal,140,123.018,31.901,88.08862581087654
mp-sxg,Hf2Al,Tetragonal,140,111.173,53.8,138.98096039698544
mp-sxh,Zr2Al,Tetragonal,140,97.792,41.265,108.52968381041178
mp-bxe,Zr2Si,Tetragonal,140,127.293,86.698,211.97036266398055
mp-toa,Mg2Pt,Tetragonal,140,70.693,36.113,92.57521105031587
mp-bzg,Si3Mo5,Tetragonal,140,240.773,121.292,311.5589394211313
mp-xcr,Cr5B3,Tetragonal,140,290.926,196.282,480.7324511140628
mp-xkb,Cr2B,Tetragonal,140,292.013,188.047,464.4450894937063
mp-yfq,Th2Ge,Tetragonal,140,80.239,41.432,106.04382872879225
mp-ytg,Zr5Al3,Tetragonal,140,101.787,44.441,116.38482513822106
mp-csq,TlSe,Tetragonal,140,20.394,9.644,24.992483325332508
mp-csv,SiIr3,Tetragonal,140,298.389,102.452,275.79160827129397
mp-ctv,Ta2Ni,Tetragonal,140,228.033,83.263,222.68551884377908
mp-cvr,Fe2B,Tetragonal,140,220.866,140.537,347.8351776202008
mp-cyn,Ta5Si3,Tetragonal,140,215.33,131.92,328.64599041020165
mp-bdog,In2Ag,Tetragonal,140,42.934,15.587,41.71308286642334
mp-bdso,MnSn2,Tetragonal,140,66.375,50.437,120.73073174201198
mp-bdvf,CoSn2,Tetragonal,140,103.565,55.693,141.68206902245706
mp-bebm,Mn2B,Tetragonal,140,301.039,168.637,426.3075524672639
mp-bebo,InTe,Tetragonal,140,14.809,12.459,29.190802288788102
mp-bfgf,FeGe2,Tetragonal,140,117.621,74.651,184.84711012738762
mp-bfny,PtPb2,Tetragonal,140,74.915,19.891,54.82107451478932
mp-des,BaTe2,Tetragonal,140,28.302,14.972,38.1829621738521
mp-dhx,Th2Ag,Tetragonal,140,71.978,24.919,67.02253257381058
mp-bhrc,FeSn2,Tetragonal,140,80.683,60.881,145.93653816723335
mp-biho,In5Bi3,Tetragonal,140,36.164,8.227,22.94134675588379
mp-dsf,BMo2,Tetragonal,140,293.327,147.601,379.19915563234866
mp-dto,Ni2B,Tetragonal,140,238.119,98.426,259.52056852320976
mp-dyo,CrSb2,Tetragonal,140,82.324,35.331,92.72768336149457
mp-edb,Ta2Si,Tetragonal,140,214.601,108.228,277.95733587046277
mp-ede,Ca5Zn3,Tetragonal,140,27.439,11.457,30.171663862051314
mp-efr,VSb2,Tetragonal,140,99.681,47.367,122.6705618862042
mp-bsyd,Cd5Au3,Tetragonal,140,73.514,11.916,33.915526314431
mp-btfv,Tl2Au,Tetragonal,140,38.126,8.532,23.81921152062485
mp-btfw,Hf2Ga,Tetragonal,140,119.01,63.266,161.22822948588615
mp-bucy,Ca5Ag3,Tetragonal,140,30.043,12.638,33.25144166901826
mp-buet,Si3W5,Tetragonal,140,267.109,121.199,315.82859802216956
mp-mj,RhPb2,Tetragonal,140,80.123,28.256,75.8514635346673
mp-mk,TlS,Tetragonal,140,23.073,10.224,26.724634870284355
mp-mq,Zr2Ni,Tetragonal,140,117.807,20.086,57.01751939856548
mp-bdatv,Sn2Ru,Tetragonal,140,117.026,63.673,161.6935666990556
mp-bdbgv,CsN3,Tetragonal,140,15.276,7.301,18.89308445481752
mp-vt,Sn2Rh,Tetragonal,140,107.752,50.824,131.75654627887081
mp-bghvz,Nd5Si3,Tetragonal,140,55.178,28.511,72.96565034914582
mp-bgiga,Nb5Si3,Tetragonal,140,192.916,107.54,272.0660710372322
mp-vw,TiSb2,Tetragonal,140,89.181,54.473,135.77464944909568
mp-bgivz,Th2Ga,Tetragonal,140,72.297,32.054,83.78024198919441
mp-bgjfz,V5Si3,Tetragonal,140,193.107,121.043,300.3698868145707
mp-bgkyr,Zr2Ga,Tetragonal,140,107.034,55.298,141.52203822529225
mp-bgkyv,Ti3Sb,Tetragonal,140,109.29,59.1,150.2218544073184
mp-bglqd,Ta5Si3,Tetragonal,140,210.57,114.096,289.9235893516544
mp-bglqj,Nb5Ga3,Tetragonal,140,164.794,59.837,160.12985336482512
mp-bgmno,Tl2Pd,Tetragonal,140,56.741,12.66,35.35085021571168
mp-bgmxs,Tl2Pt,Tetragonal,140,64.88,19.653,53.551818118183974
mp-bgnrc,Zr2Rh,Tetragonal,140,126.117,6.6850000000000005,19.706804831236564
mp-wc,Ta2Co,Tetragonal,140,213.632,78.733,210.35699548517366
mp-ye,Zr2Co,Tetragonal,140,110.323,23.228,65.11417035152753
mp-bcp,RbN3,Tetragonal,140,17.987,9.539,24.318140740157478
mp-lcs,Cr5Si3,Tetragonal,140,224.113,131.374,329.699272449245
mp-bqznf,Tl2Au,Tetragonal,140,37.616,4.547,13.11265018101282
mp-ben,Ca5Si3,Tetragonal,140,40.597,26.846,65.99166800998405
mp-bfv,KN3,Tetragonal,140,20.517,11.746,29.591035622194635
mp-bhd,Hf2Ni,Tetragonal,140,140.732,19.409,55.667862664598445
mp-bku,U3Si,Tetragonal,140,141.244,69.262,178.59360834411777
mp-cdxbh,PbSe2,Tetragonal,140,44.759,18.15,47.966453777874
mp-osg,Hf2Si,Tetragonal,140,141.732,100.146,243.16547286910242
mp-osh,Hf2Ge,Tetragonal,140,133.014,91.279,222.85903347806848
mp-bmk,Al2Cu,Tetragonal,140,107.587,47.617,124.48561094611448
mp-ozo,ThGe2,Tetragonal,141,85.821,33.162,88.13406973935486
mp-cfskb,IrO2,Tetragonal,141,192.223,75.26,199.71550095179077
mp-cfxyw,LiAg,Tetragonal,141,44.019,14.296,38.6986301339911
mp-pcv,YGe2,Tetragonal,141,68.32,21.049,57.265901446402566
mp-riw,PrGe2,Tetragonal,141,64.615,22.802,61.20629904868288
mp-swk,SmGe2,Tetragonal,141,68.822,24.776,66.36426275503585
mp-sxd,YSi2,Tetragonal,141,85.55,19.816,55.18700020979072
mp-sxe,DySi2,Tetragonal,141,88.042,18.126,50.88588788741977
mp-txc,LiSn,Tetragonal,141,37.597,17.536,45.52939090134815
mp-col,SrSi2,Tetragonal,141,52.527,34.563,85.03734859792655
mp-cus,BMo,Tetragonal,141,311.129,205.308,504.87220422325544
mp-cva,CeSi2,Tetragonal,141,89.084,47.956,121.9798061470521
mp-bdgb,LaGe2,Tetragonal,141,62.983,17.74,48.65215749265804
mp-dbi,LaSi2,Tetragonal,141,79.133,37.317,96.7437479032892
mp-beua,ZrIn2,Tetragonal,141,81.529,44.771,113.53138233952403
mp-ddx,NdGe2,Tetragonal,141,66.327,18.615,51.067546944796774
mp-bigu,ThBr4,Tetragonal,141,26.598,15.046,37.97703049346267
mp-dwl,BaGe2,Tetragonal,141,39.558,22.184,56.070596260063326
mp-bpbs,PrSi2,Tetragonal,141,80.53,27.008,72.87689469020617
mp-bpje,CuN3,Tetragonal,141,15.781,4.885,13.284285536493833
mp-gfcen,Cu2S,Tetragonal,141,87.619,20.647,57.42996725619392
mp-efk,ThSi2,Tetragonal,141,106.389,45.354,119.13305503386637
mp-btkc,ZrGa,Tetragonal,141,113.596,75.217,184.85151137125757
mp-bwmu,AuCl,Tetragonal,141,10.267,2.471,6.862461318826641
mp-bwzg,Sm2O,Tetragonal,141,80.158,44.22,112.05463002381505
mp-pa,TiO2,Tetragonal,141,184.247,47.35,130.84158744257124
mp-bghuv,TiAl2,Tetragonal,141,109.691,81.43,195.8310735122521
mp-bgnes,TiGa2,Tetragonal,141,105.655,67.761,167.4791828340169
mp-bkorr,V2H,Tetragonal,141,191.732,57.721,157.37081631240744
mp-bqxzn,ZrO2,Tetragonal,141,169.342,39.788,110.69453402797299
mp-bqyzf,SnO2,Tetragonal,141,139.796,49.089,131.83574134055675
mp-bqzxa,NbO2,Tetragonal,141,181.643,94.335,241.24247829535213
mp-lnq,Ti2N,Tetragonal,141,179.192,105.086,263.70803720773904
mp-lpg,BW,Tetragonal,141,341.8,196.608,494.9276351709645
mp-bhe,CaSi2,Tetragonal,141,58.747,28.878,74.43709648545479
mp-bia,NdSi2,Tetragonal,141,81.814,25.855,70.1729423104568
mp-cin,Sn2Pd,Tetragonal,142,82.369,31.702,84.29196454203415
mp-bugz,Sn4Ir,Tetragonal,142,71.396,37.376,95.46863646626703
mp-cdhkl,C3N4,Trigonal,144,68.864,51.344,123.37083208237702
mp-eam,TiNi,Trigonal,147,150.897,38.05,105.29928750603678
mp-sul,Ca3Au4,Trigonal,148,51.992,16.615,45.046518764014344
mp-suy,Zr3Pd4,Trigonal,148,144.324,30.697,85.99415628821421
mp-ccd,Rh3Se8,Trigonal,148,74.501,46.162,114.77958377245841
mp-bija,AsI3,Trigonal,148,3.438,2.604,6.237263353460288
mp-bimn,ScCl3,Trigonal,148,5.757,3.138,7.966543877701015
mp-bknap,Si3N4,Orthorhombic,62,254.919,160.943,398.88393383709627
mp-bmdab,ZrRh,Orthorhombic,62,155.521,46.847,127.71708884322472
mp-bap,SnSe,Orthorhombic,62,23.839,14.724,36.63047650189585
mp-bau,SiPt,Orthorhombic,62,173.672,69.894,184.88039957353914
mp-bay,GeSe,Orthorhombic,62,19.51,13.905,33.70717125698903
mp-kmu,TiSi,Orthorhombic,62,145.819,99.581,243.3481737809987
mp-kwl,Y3Pt,Orthorhombic,62,55.615,17.134,46.61492175737449
mp-kxk,Dy2Se3,Orthorhombic,62,66.917,35.068,89.55940023492593
mp-kya,SmF3,Orthorhombic,62,112.098,48.388,126.90425394481674
mp-bcn,HfO2,Orthorhombic,62,224.899,93.323,245.9496424481133
mp-lbn,La2S3,Orthorhombic,62,69.384,32.899,85.22668623652257
mp-bqymn,ZrO2,Orthorhombic,62,109.287,49.055,128.01171631079606
mp-bqyzx,ZrO2,Orthorhombic,62,154.271,77.349,198.81881400579823
mp-bqzzr,ZrO2,Orthorhombic,62,213.895,82.002,218.13071135725804
mp-braew,Li2O,Orthorhombic,62,71.014,44.318,110.0590071028909
mp-lqf,TiB,Orthorhombic,62,207.405,190.624,437.7586908108494
mp-ltv,ThSe2,Orthorhombic,62,77.932,26.736,71.976991571093
mp-bfm,SiRh,Orthorhombic,62,195.549,95.795,247.04450795085884
mp-bij,ZrSi,Orthorhombic,62,141.728,92.826,228.57549072797823
mp-nov,TiO2,Orthorhombic,62,100.826,53.487,136.35026577893896
mp-nwl,ErF3,Orthorhombic,62,72.095,44.528,110.77751277735389
mp-blb,ZrO2,Orthorhombic,62,212.032,84.375,223.48130597900538
mp-cdifk,Zr3As2,Orthorhombic,62,125.408,62.953,161.78736230722467
mp-otj,NdSi,Orthorhombic,62,78.992,53.571,131.08076795836817
mp-otk,PrSi,Orthorhombic,62,76.517,50.93,125.04625015598204
mp-cezro,LuSi,Orthorhombic,63,97.309,67.15,163.77739078247842
mp-cfals,LaAu,Orthorhombic,63,64.033,14.169,39.587101212985054
mp-cfiqk,HoAu,Orthorhombic,63,83.589,17.384,48.77103044180331
mp-cfirj,HfPt,Orthorhombic,63,176.476,55.584,150.90831958318807
mp-cfiyr,FeB,Orthorhombic,63,251.424,159.067,394.09173666294777
mp-cfjac,DyAu,Orthorhombic,63,82.469,17.544,49.14691857739734
mp-cfjvz,BW,Orthorhombic,63,339.625,188.232,476.6393012384155
mp-cfxex,TmAu,Orthorhombic,63,86.722,18.132,50.85192755966626
mp-cfyab,HfBe,Orthorhombic,63,116.852,67.239,169.25311373281153
mp-pcu,ScGe2,Orthorhombic,63,80.354,56.949,138.19865546573786
mp-pte,ZrSb,Orthorhombic,63,94.274,58.065,144.52348810602925
mp-cipat,LaNi,Orthorhombic,63,67.304,14.716,41.148932621821736
mp-ptr,YbSi,Orthorhombic,63,55.819,38.258,93.42882005687481
mp-bpd,HfSi2,Orthorhombic,63,131.995,95.031,229.91623817757466
mp-cjbeg,TbSn2,Orthorhombic,63,60.169,38.323,94.8348456930037
mp-cjhja,TmSn2,Orthorhombic,63,61.628,37.017,92.52573482769344
mp-ckkmp,AlO2,Orthorhombic,63,121.5,76.989,190.6898507097572
mp-bqf,TaB,Orthorhombic,63,286.134,212.507,511.0138223154349
mp-qpw,YAl,Orthorhombic,63,53.421,28.791,73.21927120822622
mp-qqb,ZrAl,Orthorhombic,63,108.913,70.301,173.5599317877292
mp-qql,ErAu,Orthorhombic,63,85.251,16.141,45.54836634497267
mp-qss,HoCd3,Orthorhombic,63,56.766,27.83,71.76259801744327
mp-qtm,ZrSi,Orthorhombic,63,142.355,93.649,230.41944436869377
mp-qwx,ScGa,Orthorhombic,63,76.65,43.659,110.07737738890167
mp-bsy,HfTe5,Orthorhombic,63,11.773,7.3,18.148856143973344
mp-rvq,Cr2B3,Orthorhombic,63,298.232,185.951,461.8611329027887
mp-csczr,LiC12,Orthorhombic,63,128.198,101.322,240.58376304546468
mp-stw,LaAl,Orthorhombic,63,52.592,34.891,85.71725956183467
mp-svj,CaAu,Orthorhombic,63,47.167,18.66,49.45789536778617
mp-tcd,HoSi,Orthorhombic,63,92.828,66.189,160.43534720735303
mp-tco,GeS,Orthorhombic,63,23.949,19.766,46.50413594140569