material_id,formula_pretty,symmetry.crystal_system,symmetry.number,bulk_modulus.vrh,shear_modulus.vrh,youngs_modulus_vrh
mp-cfkmh,LiMnAs,Cubic,216,43.203,33.252,79.3884073166688
mp-cfkpy,LiCdAs,Cubic,216,46.662,3.251,9.531639576366441
mp-cfkqg,LiCuO,Cubic,216,97.277,46.923,121.27017847464533
mp-cflkq,CsRbP,Cubic,216,10.753,4.376,11.559878586051592
mp-cflmm,CrFeTe,Cubic,216,93.912,54.599,137.20698586825637
mp-cflmn,CrCoTe,Cubic,216,101.026,48.166,124.68302616984204
mp-pao,MnSbIr,Cubic,216,131.258,42.613,115.3555774713729
mp-cfxff,Mn2CoAs,Cubic,216,199.678,76.451,203.39496066085846
mp-pbm,LiMgP,Cubic,216,55.743,22.303,59.03554629825042
mp-pbo,Li2SbPd,Cubic,216,68.437,27.178,72.00266280985338
mp-cfxyf,Li2MgSi,Cubic,216,44.934,36.356,85.90065632923965
mp-cfxyl,Ti2MnGe,Cubic,216,140.634,33.046,91.93692570579496
mp-cfydb,LiCdAs,Cubic,216,46.596,29.67,73.42544984597954
mp-cfydc,LaBiPt,Cubic,216,78.997,33.23,87.43077995418564
mp-cfydf,HoNiBi,Cubic,216,81.591,50.118,124.8006878541563
mp-cfyeb,CrNiSb,Cubic,216,104.241,46.545,121.54457425932729
mp-pbq,LiZnP,Cubic,216,63.12,51.137,120.79114067950951
mp-pbr,MgSbPd,Cubic,216,79.924,29.553,78.93045854636591
mp-pbs,MgSbPt,Cubic,216,88.916,35.31,93.54698647279662
mp-pcc,LuSbPt,Cubic,216,104.751,50.093,129.61752451515866
mp-cgifl,TmInCu4,Cubic,216,109.749,55.5,142.48226886759352
mp-cgigm,TbInPt4,Cubic,216,161.456,57.587,154.4037790001015
mp-cgigp,HoCu4Ag,Cubic,216,104.289,14.049,40.335760406342914
mp-cgigw,HoCu4Au,Cubic,216,110.424,33.425,91.08465328752361
mp-cgihy,HoInPt4,Cubic,216,163.795,57.77,155.07813704691753
mp-cgill,DyInPt4,Cubic,216,165.87,59.703,159.92167684945443
mp-cgilo,TmCu4Ag,Cubic,216,109.243,27.214,75.38238820881098
mp-cgimg,HoCu4Pd,Cubic,216,115.869,48.519,127.72863204889353
mp-psp,ThSbRh,Cubic,216,112.537,42.792,113.93482631840445
mp-psq,USbRh,Cubic,216,134.411,36.636,100.75393483969091
mp-pvb,LiCdP,Cubic,216,53.16,4.094,11.974600853436366
mp-pxr,TiFeSb,Cubic,216,119.461,56.301,145.97130308620538
mp-pxs,VFeSb,Cubic,216,83.654,11.035,31.71065703042401
mp-qoo,NdMgNi4,Cubic,216,122.846,50.0,132.08048014756127
mp-qsu,Li2CdPb,Cubic,216,32.005,11.955,31.893840650180604
mp-quz,MgCuSn,Cubic,216,78.29,38.37,98.94556324110671
mp-qwc,LiGaSi,Cubic,216,58.688,46.327,110.02941119020103
mp-rbc,YNiSb,Cubic,216,88.707,55.328,137.4147316183905
mp-rbp,ZrZnNi4,Cubic,216,162.623,70.469,184.72488292575466
mp-rez,ZnNiSb,Cubic,216,96.917,40.075,105.66140199077462
mp-rme,ScNi4Sn,Cubic,216,140.435,57.323,151.37309046900722
mp-rng,ErSbPd,Cubic,216,90.514,44.187,114.00878304495312
mp-ron,HfSnPd,Cubic,216,123.996,58.332,151.2744284439487
mp-rpa,TiCuHg2,Cubic,216,100.973,12.437,35.83952995662045
mp-rtu,CeCdNi4,Cubic,216,121.691,53.332,139.60210730751308
mp-rtv,HoCdCu4,Cubic,216,104.872,51.211,132.12638741262947
mp-rtw,ErCdCu4,Cubic,216,101.387,52.422,134.14600198551247
mp-crkbx,RbBH4,Cubic,216,11.822,7.082,17.709660524584002
mp-crtlk,CsBH4,Cubic,216,10.872,5.362,13.814865869714044
mp-sjj,Li2ZnGe,Cubic,216,48.483,38.377,91.09532285422084
mp-spa,LiMgAs,Cubic,216,46.549,36.802,87.37860051346281
mp-spg,LiSbAu,Cubic,216,53.85,8.279,23.626220197963836
mp-tjb,Mn2AlCo,Cubic,216,158.934,102.599,253.2930132913129
mp-tje,Mn2CoSi,Cubic,216,220.339,98.352,256.8409191736823
mp-tjh,Mn2CoSb,Cubic,216,171.446,74.447,195.101375303379
mp-tmq,YMgCu4,Cubic,216,90.416,45.743,117.42633636917137
mp-tpg,ScInCu4,Cubic,216,114.133,60.675,154.62465446791404
mp-trw,HoGeAu,Cubic,216,86.61,31.821,85.04737268173263
mp-twu,PrMgNi4,Cubic,216,113.482,48.482,127.31536149621523
mp-xiw,MgNiSb,Cubic,216,83.144,46.001,116.5149604004969
mp-xqy,Li2CuSb,Cubic,216,52.716,33.809,83.56286666284637
mp-yao,Li2AgSb,Cubic,216,46.551,20.639,53.94464353180445
mp-yaw,CdSbAu,Cubic,216,69.142,14.861,41.60240301052244
mp-ydm,TmSbPt,Cubic,216,103.205,49.592,128.23603448707848
mp-ydz,DySbPt,Cubic,216,100.142,48.071,124.32053859287169
mp-yeb,ErSbPt,Cubic,216,101.691,49.226,127.15974500069152
mp-yep,LiInGe,Cubic,216,37.377,33.386,77.17872618319511
mp-yfw,HoSbPt,Cubic,216,99.731,47.964,124.01155429963963
mp-bdkw,ThSnPt,Cubic,216,109.3,42.631,113.17842420742126
mp-bdwj,LuNiSb,Cubic,216,96.168,62.894,154.91127362136382
mp-bdzp,MnGaPt,Cubic,216,123.891,21.757,61.6614604453143
mp-bdzv,CeGeAu,Cubic,216,70.17,18.402,50.76804649821766
mp-beef,Na2CdPb,Cubic,216,23.527,10.909,28.345863136581173
mp-bezw,TiNiSb,Cubic,216,126.65,59.365,154.02887506686545
mp-bfcs,Li2InPt,Cubic,216,71.969,18.408,50.88555221816785
mp-bfcv,Li2InPd,Cubic,216,59.663,17.086,46.79137147520081
mp-bfme,ErNiSb,Cubic,216,92.177,58.842,145.55408845076974
mp-bfru,MnSnPt,Cubic,216,59.75,15.121,41.83400687345334
mp-bfsb,UNiSn,Cubic,216,116.316,51.159,133.85292483260727
mp-bgpf,MnSnAu,Cubic,216,79.189,21.172,58.31863604636332
mp-bgwz,TbInCu4,Cubic,216,103.672,50.032,129.29654100285836
mp-bgyu,Mn2InCo,Cubic,216,135.295,36.221,99.76042341655621
mp-bgzh,Mn2CoGe,Cubic,216,176.138,66.995,178.37030980384912
mp-bhsk,ThNiSn,Cubic,216,98.7,48.922,125.9554828387755
mp-bhsq,MnTePd,Cubic,216,83.667,19.831,55.13677295518994
mp-bovw,Be4TeO7,Cubic,216,182.13,112.527,279.9303745236502
mp-ehi,ScSnAu,Cubic,216,88.353,43.605,112.33474938768367
mp-eix,Li2GeAu,Cubic,216,61.01,28.556,74.1061036174416
mp-brzp,MgNiBi,Cubic,216,69.981,35.796,91.7451396969956
mp-eky,Li2GaRh,Cubic,216,81.563,35.873,93.85870321354994
mp-bsxc,Li2InAg,Cubic,216,43.023,15.372,41.208147298897124
mp-bsxh,Li2AgPb,Cubic,216,39.481,13.522,36.40934140112909
mp-bsyn,Li2GaAu,Cubic,216,59.891,25.706,67.46562410957303
mp-bsyy,Li2InAu,Cubic,216,53.673,16.653,45.27639820005403
mp-bszj,Li2PbAu,Cubic,216,44.376,11.552,31.88888559579762
mp-bszk,Li2SbAu,Cubic,216,54.242,21.767,57.59660543218442
mp-bszl,Li2SnAu,Cubic,216,55.812,21.316,56.72627218784437
mp-bszm,Li2TlAu,Cubic,216,45.771,8.488,23.981579220992998
mp-btbd,MgCuBi,Cubic,216,56.495,29.042,74.38056339943685
mp-btbg,DyNiBi,Cubic,216,79.997,50.161,124.46774674308638
mp-btbh,DyBiPt,Cubic,216,89.435,40.218,104.92595842125222
mp-btbi,ErBiPt,Cubic,216,90.805,40.701,106.23120104050895
mp-btbj,HoBiPt,Cubic,216,90.608,40.665,106.1194758215489
mp-btbl,LuNiBi,Cubic,216,82.386,50.28,125.34145845520746
mp-btbn,ScNiBi,Cubic,216,87.697,53.578,133.53902274614822
mp-btbo,YNiBi,Cubic,216,80.316,49.382,122.94796406847382
mp-bteg,TlClO4,Cubic,216,12.984,5.629,14.754770507615351
mp-btgg,HfCuHg2,Cubic,216,105.976,17.253,49.094773725241
mp-btgl,MgInCu4,Cubic,216,100.153,31.24,84.89328421249387
mp-btgp,Li2CuSn,Cubic,216,52.666,30.448,76.58517194315613
mp-btpg,Li2AlPd,Cubic,216,68.314,29.042,76.31195591151533
mp-btpi,Li2AlPt,Cubic,216,84.603,37.313,97.59181941248
mp-btpk,Li2AlRh,Cubic,216,80.792,39.204,101.2370413807799
mp-btql,TiSnPt,Cubic,216,136.97,56.643,149.3424817935079
mp-btqm,USnPt,Cubic,216,145.047,53.407,142.70599032438983
mp-bucu,Li2AlAg,Cubic,216,50.135,25.281,64.92928528738773
mp-bunh,Li2GaIr,Cubic,216,95.635,41.728,109.28882832825674
mp-buni,Li2InRh,Cubic,216,70.882,25.237,67.6788223874762
mp-bunj,Li2InIr,Cubic,216,82.523,28.256,76.08421641258045
mp-bunr,ZrCoBi,Cubic,216,118.226,61.85,157.9977886240541
mp-buns,ZrNiBi,Cubic,216,99.372,37.576,100.1096852114438
mp-bunt,NbSbRh,Cubic,216,149.831,42.085,115.4460507081277
mp-bunu,TaSbRu,Cubic,216,176.103,71.486,188.89802602889324
mp-bunv,VSbRu,Cubic,216,161.485,48.967,133.4158020385361
mp-bunw,HfSbRu,Cubic,216,142.704,47.25,127.66034306486425
mp-bunx,ZrSbRu,Cubic,216,136.523,45.611,123.12174299617733
mp-buny,TiSbRu,Cubic,216,144.54,28.092,79.1483849672523
mp-bunz,TaCoSb,Cubic,216,165.084,66.374,175.58939355371726
mp-buoa,NbCoSb,Cubic,216,193.533,59.158,161.0630707065339
mp-erm,Li2SbPt,Cubic,216,79.179,28.96,77.43882505243961
mp-erp,LiAlSi,Cubic,216,63.069,55.349,128.46650554065326
mp-etd,Li2GaPd,Cubic,216,67.604,26.29,69.81947970772843
mp-exf,BaSO4,Cubic,216,43.4,19.34,50.51627658151665
mp-byqy,NaZnAs,Cubic,216,42.014,15.206,40.70701146918895
mp-fca,ScNiSb,Cubic,216,103.751,66.881,165.15503942782186
mp-fcb,YMgNi4,Cubic,216,90.883,57.883,143.23946305047622
mp-cace,NdOF,Cubic,216,131.316,58.164,152.0436847860707
mp-ffm,MgCuSb,Cubic,216,66.779,36.515,92.65666604039654
mp-cban,Li2CuGe,Cubic,216,58.787,40.226,98.26486704188154
mp-cbhx,PrOF,Cubic,216,124.08,55.446,144.77363561117266
mp-cbkx,LiMgP,Cubic,216,53.996,43.198,102.31045428050646
mp-ccaw,AcOF,Cubic,216,106.534,46.716,122.27513006731856
mp-flk,MgCu4Sn,Cubic,216,97.854,58.121,145.54684476076469
mp-fmy,TbNiSb,Cubic,216,89.316,55.203,137.31846824549515
mp-fni,Li2GaPt,Cubic,216,82.351,28.95,77.74028923598657
mp-cdht,SmOF,Cubic,216,136.531,61.265,159.88078239086943
mp-ceby,LiMgN,Cubic,216,98.683,82.964,194.41081891122468
mp-cena,YOF,Cubic,216,141.676,65.184,169.5492469706984
mp-fyv,TmNiSb,Cubic,216,91.824,61.273,150.37190624359678
mp-gau,VCoSb,Cubic,216,141.89,55.213,146.62101411362013
mp-geo,HoNiSb,Cubic,216,92.38,57.242,142.32866494009843
mp-ghy,BeAlB,Cubic,216,140.226,133.528,304.0690211798501
mp-grm,DyNiSb,Cubic,216,90.475,56.439,140.17051803491694
mp-hek,MnSbRh,Cubic,216,112.852,31.097,85.44290942045649
mp-hiy,YSbPt,Cubic,216,96.369,47.273,121.88853568285867
mp-bctmn,NbSbRu,Cubic,216,168.993,67.952,179.76193843087253
mp-bctxc,Al13(CrSi)4,Cubic,216,112.279,68.175,170.0976450697757
mp-bctyd,VNiSb,Cubic,216,142.304,47.873,129.1377666269996
mp-hsw,ReTeS,Cubic,216,67.821,43.016,106.52628915242272
mp-hwo,MnCoSb,Cubic,216,116.415,56.542,145.99046388869039
mp-bevwr,CdAgSb,Cubic,216,58.715,6.418,18.57712586887814
mp-bfbiq,ZnSO4,Cubic,216,70.5,8.515,24.556359793650433
mp-bfcqj,KClO4,Cubic,216,15.769,7.16,18.656330622211616
mp-bfctj,CsClO4,Cubic,216,10.709,5.142,13.297676406665058
mp-bforh,MoSBr,Cubic,216,50.553,31.655,78.56626845194585
mp-ifl,MgSnAu,Cubic,216,65.619,28.043,73.63887306803024
mp-bghhb,Li2AgSn,Cubic,216,46.665,20.768,54.255322928783364
mp-iki,MnSbPt,Cubic,216,110.879,29.228,80.60172359305267
mp-bghse,VFeSb,Cubic,216,162.865,60.034,160.39424946548579
mp-bgiqn,TmNiBi,Cubic,216,83.509,51.78,128.73292441127728
mp-bgivm,CaBiAu,Cubic,216,53.944,22.466,59.182156811251346
mp-bgiyc,LiInSn,Cubic,216,34.609,19.365,48.96283496493278
mp-bgjpz,YbNiSb,Cubic,216,71.524,33.339,86.56674259714171
mp-bgjrz,MnSbRh,Cubic,216,104.921,9.443,27.50387416334059
mp-bgkwp,ScSbPd,Cubic,216,99.2,46.202,119.9793648669874
mp-bglfq,YbSbPt,Cubic,216,77.685,26.578,71.57182395920395
mp-bglnh,LiMgBi,Cubic,216,31.336,21.657,52.80589433277137
mp-bgmir,CaInCu4,Cubic,216,83.946,39.309,102.00517204711022
mp-bhemg,MnSnPt,Cubic,216,100.495,10.5,30.43985287754219
mp-irq,MnCuSb,Cubic,216,75.954,30.067,79.68619372773128
mp-its,LiAlGe,Cubic,216,55.853,50.642,116.66568271456136
mp-iuq,MnSbAu,Cubic,216,77.433,12.833,36.483523982996914
mp-ivn,TiCoSb,Cubic,216,141.018,74.37,189.75276211039275
mp-bidts,MnNiSb,Cubic,216,101.928,50.092,129.1236171700255
mp-bjxvp,LiIrRh,Cubic,216,141.531,30.087,84.28826597387173
mp-bjxxo,TcIrOs,Cubic,216,264.415,57.963,162.04803033453632
mp-bjxxq,KSnOs,Cubic,216,58.658,15.074,41.653910158703574
mp-bjxxx,KMoRu2,Cubic,216,142.296,48.436,130.50096671743907
mp-bjxyd,MgTaZn,Cubic,216,88.355,36.564,96.39494206458929
mp-bjxyh,Na2LiTa,Cubic,216,17.782,5.998,16.175315516311677
mp-bjxyl,LaRe2W,Cubic,216,194.937,81.15,213.7846479748814
mp-bjxyw,ReOsRu,Cubic,216,271.769,40.401,115.48057786184076
mp-bjxzn,TlCuIr,Cubic,216,106.279,14.125,40.577356800475734
mp-bjxzz,MnCrRe,Cubic,216,167.245,33.053,93.03039870939512
mp-bjyae,CdIrRu,Cubic,216,157.642,17.362,50.241538924060954
mp-bjyau,CrIrRu,Cubic,216,181.074,15.702,45.782638662859355
mp-bjybb,CaTa2Tl,Cubic,216,97.416,36.635,97.66244056396955
mp-bjybo,ReW2Br,Cubic,216,209.674,41.412,116.56207351059163
mp-bjydr,CaHfBe,Cubic,216,49.413,19.0,50.524237767506385
mp-bjyfj,TcNiW,Cubic,216,201.037,21.798,63.1129344176512
mp-bjygb,BeGeB,Cubic,216,111.116,3.995,11.843067086022238
mp-bjyhk,MoPt2Br,Cubic,216,173.98,53.948,146.6827879032034
mp-kpx,ScSbPt,Cubic,216,112.645,53.46,138.47395929942897
mp-lfj,LiZnN,Cubic,216,112.773,83.729,201.35466736721892
mp-brgcb,Li4CuF7,Cubic,216,53.165,15.96,43.524667863554754
mp-bxjvj,SmCu4Ag,Cubic,216,100.508,31.012,84.35954863232853
mp-nmy,LiZnAs,Cubic,216,53.606,40.964,97.94355123846526
mp-capbk,HfNiSn,Cubic,216,127.878,77.933,194.32334973254157
mp-capbl,ZrNiSn,Cubic,216,115.909,73.11,181.2268477106338
mp-capbm,TiNiSn,Cubic,216,123.819,69.076,174.7344493965265
mp-nyz,NbFeSb,Cubic,216,164.016,80.125,206.71377013595537
mp-ccsoj,LiAlGe,Cubic,216,48.554,4.5600000000000005,13.26474258098015
mp-ccsok,TiTeOs,Cubic,216,158.831,62.489,165.7322753468576
mp-ccson,ZrFeTe,Cubic,216,135.818,74.15,188.2005595883755
mp-ccsop,ZrFeSe,Cubic,216,143.448,68.035,176.24210113186953
mp-ccsoq,ZrFeSb,Cubic,216,119.495,67.211,169.7981799335676
mp-ccsor,FeSiW,Cubic,216,226.039,121.257,308.59059615023756
mp-ccsou,VFeTe,Cubic,216,134.14,53.837,142.45317139243892
mp-ccsov,YNiP,Cubic,216,107.291,33.705,91.530377005889
mp-ccsow,VFeSe,Cubic,216,138.506,51.107,136.52855135922852
mp-ccsox,TiSiPd,Cubic,216,145.487,56.487,150.04243352442853
mp-ccsoy,TiFeSe,Cubic,216,157.629,76.634,197.84078692897995
mp-ccsoz,ZrSiPd,Cubic,216,138.82,55.905,147.86571591883393
mp-ccspc,VSnPd,Cubic,216,120.16,31.185,86.1059997702118
mp-ccspd,MgScGa,Cubic,216,54.545,37.789,92.09830529132579
mp-ccspg,AlVPt,Cubic,216,139.456,27.745,78.05838538666212
mp-ccspl,TiFeTe,Cubic,216,146.311,73.592,189.07540511779914
mp-ccspm,VGePt,Cubic,216,145.001,3.848,11.442778145657638
mp-ccspn,ScNiP,Cubic,216,129.129,70.695,179.3542900506896
mp-ccspq,ScCoTe,Cubic,216,110.522,66.456,166.0803932646939
mp-ccspu,TiSnPd,Cubic,216,118.974,47.761,126.3726297521764
mp-ccspw,LiCaAs,Cubic,216,37.314,17.972,46.45738620933848
mp-ccspx,NaCaAs,Cubic,216,33.378,21.704,53.51306659662831
mp-ccspy,HfSiNi,Cubic,216,125.6,20.992,59.652674764701146
mp-ccspz,ZrSnPd,Cubic,216,118.393,55.653,144.34204409831756
mp-ccsqa,VGaPt,Cubic,216,136.177,15.44,44.63313745515613
mp-ccsqf,ZrInAu,Cubic,216,106.206,48.87,127.113225411442
mp-ccsqh,LaCoTe,Cubic,216,85.096,22.703,62.54666658992558
mp-ccsqi,MnCoSi,Cubic,216,181.264,72.168,191.13764395090593
mp-ccsqj,ScGeAu,Cubic,216,95.062,38.126,100.8901751497006
mp-ccsqk,LiZnP,Cubic,216,64.164,34.294,87.32444658841374
mp-ccsqs,TiSiPt,Cubic,216,165.342,68.623,180.84930035119163
mp-ccsqw,VSiPt,Cubic,216,171.875,47.772,131.1638374006251
mp-ccsqx,ZrSiPt,Cubic,216,154.395,61.799,163.57281259047895
mp-ccsqy,TaTlPt,Cubic,216,153.2,54.063,145.118617459307
mp-ccsqz,ZrSnPt,Cubic,216,133.908,63.302,164.0549086373665
mp-ccsrc,VSnPt,Cubic,216,137.912,40.965,111.82312271140817
mp-ccsrj,LiCaRh,Cubic,216,42.619,8.295,23.368892451084086
mp-ccsrl,CrGeRh,Cubic,216,118.263,8.741,25.592473652793444
mp-ccsti,BaNaSb,Cubic,216,24.711,11.206,29.20356688032435
mp-cctel,LaMgTl,Cubic,216,35.592,12.985,34.731332236704766
mp-cctep,BaNaSn,Cubic,216,18.381,3.472,9.799018817708777
mp-ccteq,CaMgSn,Cubic,216,33.364,17.467,44.61522207572368
mp-ccteu,KYSn,Cubic,216,26.23,8.847,23.85861167277837
mp-cctfa,CaCdSi,Cubic,216,46.537,17.166,45.85932425036836
mp-cdobl,NaBH4,Cubic,216,19.495,11.449,28.724001129636516
mp-cevwx,Ti2MnSi,Cubic,216,153.082,43.594,119.44378007318431
mp-cevxc,Ti2MnAl,Cubic,216,108.188,56.463,144.28786252942703
mp-cevxd,Ti2GaNi,Cubic,216,121.628,45.216,120.69198934893929
mp-cevxe,Ti2GaCo,Cubic,216,138.266,52.933,140.8277569842495
mp-cevxk,Ti2CoSi,Cubic,216,154.865,54.714,146.8481241226322
mp-cevxr,Ti2CoGe,Cubic,216,145.264,49.069,132.30932771247842
mp-cevxs,Ti2AlV,Cubic,216,117.59,34.101,93.2854344471413
mp-cevxt,Ti2AlFe,Cubic,216,412.064,12.007,35.67449744151373
mp-cevxw,Ti2AlZn,Cubic,216,96.88,14.141,40.45468949836112
mp-cevya,Ti2InNi,Cubic,216,35.899,43.517,92.98048492203104
mp-cevyd,Ti2AlCu,Cubic,216,105.546,42.04,111.33770278634319
mp-cevyu,Ti2AlCr,Cubic,216,104.525,49.611,128.50249727412398
mp-cewcv,Sc2MnSi,Cubic,216,93.51,13.769,39.374420946044665
mp-cewdb,Sc2MnSn,Cubic,216,72.919,23.849,64.51368506549714
mp-cewqo,Mn2SiNi,Cubic,216,198.379,89.79,234.05713848337126
mp-cewrg,Mn2SiRu,Cubic,216,218.838,121.126,306.7778718841623
mp-pbb,Na3SbS4,Cubic,217,21.399,4.399,12.350688217971893
mp-cgiwi,NbTl3Se4,Cubic,217,18.062,7.445,19.636940987490064
mp-cgjcf,Tl3VSe4,Cubic,217,19.502,7.414,19.740449817961164
mp-qnw,Ca3(SiIr)4,Cubic,217,131.909,53.407,141.1689510636024
mp-qsb,Ca3(GaNi)4,Cubic,217,59.548,34.84,87.46262427160818
mp-bala,Ag3Ge5P6,Cubic,217,64.884,35.962,91.0622324403549
mp-hdc,Zn4B6O13,Cubic,217,179.033,90.257,231.81548168663406
mp-ieb,Tl3VS4,Cubic,217,21.006,7.07,19.070479682684628
mp-mwt,Na3SbSe4,Cubic,217,19.392,5.501,15.077320351147197
mp-cebzc,Na3PS4,Cubic,217,22.647,6.232,17.12516597683793
mp-cgoza,Li7SbN4,Cubic,218,75.104,62.895,147.5085432345502
mp-gfm,Ag3PO4,Cubic,218,76.581,14.472,40.843199999999996
mp-biwe,Ge3(BiO3)4,Cubic,220,50.715,41.051,96.98499547092072
mp-owa,Ce3AlC,Cubic,221,64.659,43.092,105.77751900079724
mp-owb,AlCo3C,Cubic,221,232.832,114.737,295.64713514577005
mp-owc,Er3AlC,Cubic,221,38.49,16.408,43.09964724973082
mp-owd,Pr3AlC,Cubic,221,61.702,40.798,100.28978576740563
mp-owf,Tb3AlC,Cubic,221,36.148,14.277,37.848167501894544
mp-owy,DyBPd3,Cubic,221,143.573,17.014,49.102387355857175
mp-owz,ErBPd3,Cubic,221,146.762,20.647,59.16641925399136
mp-oyz,ScBIr3,Cubic,221,242.814,121.824,313.1080798526579
mp-ozt,Sc3BPb,Cubic,221,79.042,65.681,154.3029666355137
mp-ozu,TmBPd3,Cubic,221,147.36,23.258,66.28663448933894
mp-cfrib,Ba3PN,Cubic,221,40.54,27.282,66.85007938106942
mp-cfrii,Ca3PN,Cubic,221,36.021,21.22,53.21109952584639
mp-cfrim,Ca3SbAs,Cubic,221,35.485,24.198,59.14899979334574
mp-cfriq,Ca3SbN,Cubic,221,57.655,49.131,114.78743536578777
mp-cfrir,Ba3BiN,Cubic,221,35.813,25.706,62.22900448383341
mp-cfris,Ca3SbP,Cubic,221,38.669,27.881,67.43559922300679
mp-cfriv,Sr3AsP,Cubic,221,31.673,21.339,52.27686384262362
mp-cfriw,Sr3PN,Cubic,221,49.284,39.817,94.10754707490315
mp-cfrix,Sr3AsN,Cubic,221,47.628,39.085,92.06987684715529
mp-cfrja,Ca3BiP,Cubic,221,37.265,27.051,65.342175035651
mp-cfrjg,Sr3BiAs,Cubic,221,28.457,19.241,47.106165956104455
mp-cfrka,Ba3BiSb,Cubic,221,20.003,11.101,28.10406028687948
mp-cfrkb,Sr3BiSb,Cubic,221,23.823,13.656,34.3957943259912
mp-cfrke,Sr3SbP,Cubic,221,31.726,22.585,54.760709136146325
mp-cfrmg,Ca3AsP,Cubic,221,38.905,26.786,65.35831785144353
mp-cfrmh,Sr3BiP,Cubic,221,30.724,21.813,52.91611622581919
mp-cfroo,Ca3BiP,Cubic,221,26.696,12.171,31.696128767925074
mp-cfrop,Ca3BiAs,Cubic,221,26.621,12.547,32.53028008873499
mp-cfroq,Ca3BiSb,Cubic,221,26.893,13.792,35.335439489367104
mp-cfrou,Ba3SbN,Cubic,221,17.51,7.688,20.11943139924939
mp-cfrow,Ba3BiN,Cubic,221,3.97,6.834,13.0270390524968
mp-cfroy,Ba3SbP,Cubic,221,19.718,10.005,25.672830867999828
mp-cfroz,Ba3BiP,Cubic,221,18.193,8.855,22.856687817258884
mp-cfrpa,Ba3SbAs,Cubic,221,19.616,10.293,26.28205250141016
mp-cfrpc,Ba3BiAs,Cubic,221,18.404,9.183,23.620395807127878
mp-cfrpf,Ba3BiSb,Cubic,221,19.129,9.944,25.426163045254043
mp-cfrpt,Ca3BiSb,Cubic,221,28.372,15.74,39.85065360514
mp-cfrpu,Ba3AsN,Cubic,221,38.422,27.293,66.20321981775967
mp-ozz,Sc3SnB,Cubic,221,83.179,68.655,161.5247655660733
mp-paa,Sc3TlB,Cubic,221,76.574,54.498,132.14470715642813
mp-cfwel,HfZnO3,Cubic,221,162.57,55.645,149.83918221052534
mp-cfwem,MgSnO3,Cubic,221,154.103,69.68,181.65990905827005
mp-cfwen,BaSiO3,Cubic,221,175.849,121.468,296.20307232960715
mp-cfwep,BaGeO3,Cubic,221,137.118,103.37,247.8318262602871
mp-cfwer,HfMgO3,Cubic,221,168.944,77.756,202.24104322360364
mp-cfwes,MgIrO3,Cubic,221,172.48,16.076,46.77478523605666
mp-cfwet,MgGeO3,Cubic,221,185.85,100.868,256.245819828741
mp-cfwev,MgRuO3,Cubic,221,161.797,43.417,119.55693397414564
mp-cfwex,HgIrO3,Cubic,221,175.489,40.37,112.48457381928138
mp-cfwfc,ZnOsO3,Cubic,221,208.753,50.694,140.69325527473842
mp-cfwfd,SnHgO3,Cubic,221,138.108,52.382,139.50829709495912
mp-cfwfg,HgOsO3,Cubic,221,202.882,47.226,131.47648929669205
mp-cfwfh,HfHgO3,Cubic,221,159.867,52.316,141.51158498036347
mp-cfwfi,TiHgO3,Cubic,221,174.512,54.005,146.86521829619022
mp-cfwfj,MgOsO3,Cubic,221,174.473,12.192,35.74342824176501
mp-cfwfl,ZrCdO3,Cubic,221,155.518,58.151,155.1190573026749
mp-cfwfm,TiCdO3,Cubic,221,181.549,75.558,199.05888226957217