material_id,formula_pretty,symmetry.crystal_system,symmetry.number,bulk_modulus.vrh,shear_modulus.vrh,youngs_modulus_vrh
mp-mh,Sm2Tl,Hexagonal,194,48.346,18.805,49.93999603278749
mp-bwwl,VS,Hexagonal,194,163.713,123.406,295.8749941859424
mp-po,MnTe,Hexagonal,194,46.771,23.548,60.49195093402335
mp-qk,CoSe,Hexagonal,194,132.749,42.069,114.14883658327203
mp-sr,ZrNi3,Hexagonal,194,173.5,68.767,182.22583395981783
mp-su,CuSe,Hexagonal,194,64.721,18.079,49.617034474797634
mp-tg,TaSe2,Hexagonal,194,23.348,15.826,38.72771668801677
mp-th,TaSe2,Hexagonal,194,24.691,16.179,39.83602802153969
mp-tk,CuS,Hexagonal,194,79.551,27.234,73.3335116271198
mp-tn,SiNi2,Hexagonal,194,202.978,59.025,161.42755476009756
mp-bdata,IrPb,Hexagonal,194,125.941,49.325,130.88755753275214
mp-ud,CrS,Hexagonal,194,62.481,47.301,113.30949472190983
mp-bfazg,CaO,Hexagonal,194,86.059,34.214,90.63139301141278
mp-bfofm,TiS,Hexagonal,194,137.908,93.631,229.05495270964119
mp-bfrpe,GaS,Hexagonal,194,20.025,12.982,32.025417824438456
mp-bfseo,Li2S,Hexagonal,194,38.36,24.251,60.09011088702443
mp-vs,TePd,Hexagonal,194,97.958,19.279,54.276313935999326
mp-bghaa,BRh,Hexagonal,194,276.584,107.112,284.59753888718103
mp-bghfl,CeAl3,Hexagonal,194,65.0,44.645,108.98339210081579
mp-bghrg,ScOs2,Hexagonal,194,237.275,69.065,188.86985474906834
mp-bghwo,ScRu2,Hexagonal,194,188.959,52.506,144.16496947123187
mp-bghzs,TiTe,Hexagonal,194,85.973,55.643,137.30669134333877
mp-bgidh,MoC,Hexagonal,194,332.992,143.971,377.5071994484434
mp-bgini,YRu2,Hexagonal,194,167.183,48.099,131.66975237424677
mp-bgiqr,LiI,Hexagonal,194,20.169,10.762,27.41064140088959
mp-bgitd,ThRh2,Hexagonal,194,145.788,30.894,86.56717076483477
mp-bgiuw,MnBi,Hexagonal,194,56.091,31.575,79.75891640146511
mp-bgjbx,CrAs,Hexagonal,194,97.069,68.271,165.91551997896948
mp-bgjek,LuRu2,Hexagonal,194,178.59,48.129,132.48562335266885
mp-bgjeq,TiCr2,Hexagonal,194,198.395,72.282,193.36309736661136
mp-bgjkn,TiSe,Hexagonal,194,112.457,75.306,184.6920995790897
mp-bgjpc,TiAs,Hexagonal,194,112.073,34.946,94.96727202726551
mp-bgjze,CaTe,Hexagonal,194,36.971,23.429,58.029075278021764
mp-bgkbc,ErRu2,Hexagonal,194,173.521,48.395,132.8357087078484
mp-bgkic,VP,Hexagonal,194,153.93,43.728,119.83640416364997
mp-bgkju,NiPb,Hexagonal,194,92.14,40.519,106.01657082277661
mp-bgkno,ZrTe,Hexagonal,194,93.82,57.902,144.06825384103112
mp-bgkqq,HfCr2,Hexagonal,194,186.81,65.612,176.20670734551354
mp-bgksi,VSe,Hexagonal,194,58.365,37.974,93.61837052785717
mp-bglha,Yb2Sn,Hexagonal,194,35.377,26.28,63.19239368330427
mp-bglvq,TaCo2,Hexagonal,194,255.669,93.792,250.71748646548147
mp-bgmci,TaN,Hexagonal,194,327.425,185.363,467.80964860256347
mp-bgmew,YOs2,Hexagonal,194,212.391,51.03,141.7384326572247
mp-bgmfk,ZrOs2,Hexagonal,194,264.389,91.366,245.78561610024724
mp-bgmnw,GaNi2,Hexagonal,194,167.858,56.355,152.04916750159396
mp-bgmop,YRe2,Hexagonal,194,203.067,55.616,152.89014638314
mp-bgmqa,HfOs2,Hexagonal,194,274.968,88.088,238.76707644316707
mp-bgmqd,TaCr2,Hexagonal,194,239.813,85.342,228.87604132552832
mp-ws,NiAs,Hexagonal,194,117.218,43.793,116.82969112422145
mp-ww,NiS,Hexagonal,194,134.158,15.89,45.8594324081422
mp-xe,Te2Mo,Hexagonal,194,16.944,14.025,32.9764928997641
mp-bjumx,BN,Hexagonal,194,99.716,70.992,172.12769343491652
mp-yx,NbS,Hexagonal,194,178.15,100.771,254.3542843356879
mp-zm,NiSe,Hexagonal,194,118.982,24.256,68.13774987539415
mp-kfw,Mn2Sb,Hexagonal,194,62.221,25.283,66.800986510715
mp-bnqlg,TiP,Hexagonal,194,104.788,28.707,78.91469125632888
mp-kmp,SiO2,Hexagonal,194,146.02,54.984,146.55664224693942
mp-bcd,Mg3Hg,Hexagonal,194,42.628,17.515,46.215343846931546
mp-bci,Li3P,Hexagonal,194,39.519,34.45,80.08042736606822
mp-bcl,TiP,Hexagonal,194,139.085,90.022,222.13975565617997
mp-bqxwv,TiO,Hexagonal,194,231.655,156.899,384.0025410218063
mp-bdd,Li3As,Hexagonal,194,34.809,30.48,70.78064800195689
mp-lov,VSb,Hexagonal,194,91.597,45.452,117.0030308109779
mp-beg,MnSb,Hexagonal,194,56.824,41.61,100.33864146886582
mp-bei,CoTe,Hexagonal,194,113.699,50.317,131.5459673057172
mp-lrt,K3P,Hexagonal,194,13.975,6.039,15.835944145609206
mp-lru,Rb3As,Hexagonal,194,10.489,3.5700000000000003,9.618733624454148
mp-ltz,Li3Sb,Hexagonal,194,28.627,24.195,56.63062234274501
mp-lua,Na3Sb,Hexagonal,194,19.462,12.543,30.974732394366196
mp-bfe,NiSb,Hexagonal,194,108.123,50.253,130.53570284446724
mp-mji,LaF3,Hexagonal,194,109.184,26.885,74.53710126200143
mp-bgj,Li2O2,Hexagonal,194,72.65,50.633,123.26315161421238
mp-bxaow,Tc3Pd,Hexagonal,194,252.716,144.737,364.60479599063
mp-bxapq,Tc3Ru,Hexagonal,194,303.39,161.012,410.429671260346
mp-bxbnw,ScZn3,Hexagonal,194,79.006,29.499,78.70185371289635
mp-bxboz,AcHg3,Hexagonal,194,46.985,12.999,35.70431515257805
mp-bxcak,Re3Pd,Hexagonal,194,297.088,173.524,435.7365813739449
mp-bxcan,Re3Pt,Hexagonal,194,325.952,204.28,506.9376713339244
mp-bxcbc,Re3Ni,Hexagonal,194,317.142,179.065,452.1055807343888
mp-bxcbp,AcAl3,Hexagonal,194,58.815,34.916,87.44404530637156
mp-bxcbs,IrRu3,Hexagonal,194,321.281,185.926,467.5812453231909
mp-bxcdb,Ru3W,Hexagonal,194,308.427,168.416,427.44596966801595
mp-bxcdz,TaZn2,Hexagonal,194,151.886,90.589,226.69746046385603
mp-bxcga,PmZn3,Hexagonal,194,64.957,15.758,43.73724251646259
mp-bxcgy,PrGa3,Hexagonal,194,66.478,44.283,108.7105432366228
mp-bxchl,RbGe3,Hexagonal,194,19.114,12.139,30.054599300528203
mp-bxchv,Tc3Os,Hexagonal,194,325.151,174.876,444.8726898861109
mp-bxcki,PaAl3,Hexagonal,194,95.953,49.122,125.88433589430858
mp-bxckl,PaB3,Hexagonal,194,202.995,148.952,359.0385495892138
mp-bxcks,PaPd3,Hexagonal,194,159.305,52.044,140.79924065823957
mp-bxcpo,PmAl3,Hexagonal,194,68.914,41.964,104.6503255410002
mp-bxcpr,InCl3,Hexagonal,194,5.376,3.058,7.71178317523194
mp-bxcps,PmB3,Hexagonal,194,144.75,110.498,264.25295641287346
mp-bxcri,SmCl3,Hexagonal,194,4.313,2.666,6.6316002563281
mp-bxcrl,ErCl3,Hexagonal,194,4.864,2.495,6.392059460408498
mp-bxdam,TbI3,Hexagonal,194,3.138,2.63,6.167092328130188
mp-bxdqj,PmCu3,Hexagonal,194,78.335,25.855,69.87718632599861
mp-bxffb,Mn3Ir,Hexagonal,194,242.395,155.689,384.7028187431049
mp-bxfkz,ZrZn3,Hexagonal,194,101.369,41.219,108.89698226892851
mp-bxfll,LaAu3,Hexagonal,194,77.617,20.513,56.556644546975896
mp-bxfmp,MgCo2,Hexagonal,194,111.473,52.91,137.04713014001018
mp-bxfms,MgAg3,Hexagonal,194,76.915,19.291,53.40793079796509
mp-bxfmt,MgAu3,Hexagonal,194,109.614,21.208,59.76929983716612
mp-bxfmv,Mg3Sc,Hexagonal,194,43.21,24.542,61.90578302156034
mp-bxfmw,Mg3Tl,Hexagonal,194,34.56,13.139,34.98364615345106
mp-bxfnk,Mg3Ag,Hexagonal,194,47.879,33.169,80.83937739103877
mp-bxfpb,DyAl3,Hexagonal,194,71.682,39.137,99.33302347521274
mp-bxfqc,MnIr3,Hexagonal,194,287.886,136.361,353.301092893235
mp-bxfvv,YbHg3,Hexagonal,194,38.477,14.403,38.41565444336615
mp-bxfwr,Co3Pt,Hexagonal,194,211.803,94.266,246.26360281221093
mp-bxgeq,ThPt3,Hexagonal,194,174.749,44.381,122.75128611499963
mp-bxgfs,UP3,Hexagonal,194,104.325,79.737,190.64113835329707
mp-bxggo,ThGa3,Hexagonal,194,85.675,43.146,110.83283178588205
mp-bxgif,VI3,Hexagonal,194,6.8469999999999995,2.292,6.1857800551832876
mp-bxgii,VIr3,Hexagonal,194,321.065,186.516,468.77331421548547
mp-bxgjn,YAl3,Hexagonal,194,70.402,38.964,98.68606048686893
mp-bxgrl,CoTc3,Hexagonal,194,287.788,154.37,392.86542656529116
mp-bxgty,GaCu3,Hexagonal,194,124.561,45.438,121.53584397345874
mp-bxhae,CoRe3,Hexagonal,194,352.906,163.317,424.47224737262025
mp-bxhfw,HfZn3,Hexagonal,194,106.771,15.766,45.07917565215321
mp-bxhhx,VRh3,Hexagonal,194,251.039,128.846,330.0686524786187
mp-bxhkg,AcSi3,Hexagonal,194,64.505,52.263,123.44889833508287
mp-hjh,CeSF,Tetragonal,129,84.351,46.483,117.80883699121306
mp-hkf,ZrGeS,Tetragonal,129,118.661,77.929,191.7997142761666
mp-hly,YTiGe,Tetragonal,129,86.156,49.263,124.13025418953566
mp-bcspb,USnTe,Tetragonal,129,60.998,22.01,58.940771009346165
mp-bcspf,LiMnP,Tetragonal,129,88.94,38.837,101.70702787765373
mp-bctbh,CeSiOs,Tetragonal,129,93.891,37.956,100.3461549609078
mp-bctbv,USb2Ru,Tetragonal,129,83.812,53.613,132.57120922868128
mp-bctkr,Th(NiP)2,Tetragonal,129,167.095,70.895,186.33262299451223
mp-bctnv,CeMnSi,Tetragonal,129,81.905,22.855,62.73019687604721
mp-bctnw,LaFeSi,Tetragonal,129,72.64,39.227,99.72911805309803
mp-bctux,Sr(CuSb)2,Tetragonal,129,62.734,13.558,37.94076203409992
mp-bcufz,MnFeAs,Tetragonal,129,114.365,40.972,109.80340674934322
mp-htn,NdSiRu,Tetragonal,129,82.341,48.599,121.82859303773061
mp-hxj,CsNaTe,Tetragonal,129,14.558,7.749,19.7438787702001
mp-hzm,LaSF,Tetragonal,129,90.315,42.488,110.18537767242123
mp-bewxh,EuClO,Tetragonal,129,56.557,25.934,67.48673675008308
mp-ifd,ZrVSi,Tetragonal,129,156.335,61.897,164.04158857001855
mp-bfrbi,EuClF,Tetragonal,129,48.258,23.338,60.29436825449701
mp-bfrwt,NpIO,Tetragonal,129,14.177,11.809,27.728114409274934
mp-bghpe,CsAgCl2,Tetragonal,129,17.28,4.449,12.292072696263924
mp-bghvc,PrCoGe,Tetragonal,129,60.752,37.899,94.12441430810111
mp-ino,NdSF,Tetragonal,129,98.364,49.193,126.49224412332808
mp-itg,CeAsS,Tetragonal,129,80.376,42.321,108.00649945492839
mp-ivi,NaMgAs,Tetragonal,129,33.163,20.602,51.202980523103314
mp-bjafy,ScCoC2,Tetragonal,129,202.285,105.884,270.4618443216942
mp-bkphe,H4IN,Tetragonal,129,9.349,5.553,13.905802767857143
mp-kif,CsNaS,Tetragonal,129,20.614,10.436,26.787533357314818
mp-kmr,KMgSb,Tetragonal,129,23.427,14.48,36.01900213541605
mp-kms,NaMgSb,Tetragonal,129,26.982,16.18,40.4538315178222
mp-ktj,CaGaN,Tetragonal,129,79.362,53.688,131.42734960620203
mp-kyq,NaAlGe,Tetragonal,129,39.291,17.053,44.69312665461068
mp-kzx,NaCuSe,Tetragonal,129,47.267,20.221,53.09201258471071
mp-kzy,NaCuTe,Tetragonal,129,31.971,15.202,39.36649667461639
mp-lby,BaNiS2,Tetragonal,129,56.285,27.769,71.54164031349173
mp-bqwuk,BiOF,Tetragonal,129,113.68,39.898,107.1577048233571
mp-bqwyy,YIO,Tetragonal,129,18.076,12.222,29.922104559819413
mp-bqxee,Li(CuO)3,Tetragonal,129,89.756,41.778,108.49982160837943
mp-bqxxl,GdOF,Tetragonal,129,120.948,51.007,134.1612119434289
mp-bqydv,BaMgGe,Tetragonal,129,33.215,22.349,54.76415491745496
mp-bqydw,LiNiP,Tetragonal,129,59.926,32.248,82.02976442511768
mp-bqzix,DyClO,Tetragonal,129,69.64,32.308,83.94283449682457
mp-braoc,ZrSeO,Tetragonal,129,144.42,74.86,191.49321183972287
mp-brzsb,KCaBi,Tetragonal,129,16.088,8.723,22.1633112113289
mp-lsl,ZrSiO,Tetragonal,129,172.699,110.149,272.51044870799024
mp-lsm,HfSiS,Tetragonal,129,134.279,93.63,227.91622591229626
mp-lsn,HfGeSe,Tetragonal,129,111.031,73.615,180.8715923586455
mp-lso,HfGeS,Tetragonal,129,126.583,82.007,202.32813158681208
mp-ltf,USbTe,Tetragonal,129,61.912,39.772,98.2726846763751
mp-may,ThSO,Tetragonal,129,135.883,63.691,165.25378151016253
mp-mep,ZrSO,Tetragonal,129,170.185,84.61,217.74495417237236
mp-mnc,NaLiS,Tetragonal,129,35.529,23.768,58.30293773157914
mp-mql,SrSnP,Tetragonal,129,41.51,23.276,58.83171752161616
mp-muw,PrSiRu,Tetragonal,129,77.836,47.266,117.92746972298004
mp-myu,KLiSe,Tetragonal,129,24.635,15.306,38.039813363822844
mp-nal,RbNaS,Tetragonal,129,22.388,12.314,31.218355872065224
mp-nth,ZrSnTe,Tetragonal,129,81.945,53.344,131.49808883644909
mp-nzz,ZrGeSb,Tetragonal,129,98.407,74.614,178.6820043587005
mp-ocb,SrTiN2,Tetragonal,129,121.679,54.446,142.13785423008798
mp-odu,LiBeAs,Tetragonal,129,54.336,35.547,87.54922378182368
mp-oet,TaMoN,Tetragonal,129,306.124,172.722,436.1394579678745
mp-oor,RbCaAs,Tetragonal,129,21.936,11.138,28.577294622202583
mp-cehhw,SnClF,Tetragonal,129,39.388,18.433,47.83670970811951
mp-cehhx,SnBrF,Tetragonal,129,18.583,18.536,41.73238731910884
mp-osc,BaMgSi,Tetragonal,129,35.072,24.366,59.35299013751911
mp-chgoh,CaBi4O9,Monoclinic,13,85.547,38.622,100.7100994909623
mp-tdj,SmTaO4,Monoclinic,13,148.256,67.474,175.7583878245048
mp-etf,NdTaO4,Monoclinic,13,146.512,65.377,170.73562220818238
mp-fcm,ErTaO4,Monoclinic,13,138.466,67.66,174.5494040881219
mp-hfn,GdTaO4,Monoclinic,13,142.698,65.535,170.5033960119847
mp-hyv,YTaO4,Monoclinic,13,137.531,66.772,172.41346236792424
mp-idd,LuTaO4,Monoclinic,13,138.592,58.177,153.10758884530745
mp-bfnmf,ScNbO4,Monoclinic,13,166.644,60.602,162.15008758077119
mp-bfupp,ScTaO4,Monoclinic,13,178.016,73.282,193.3188161427889
mp-bgpsl,ReO3F,Monoclinic,13,6.734,6.173,14.184676322274882
mp-bqvbm,Li3SbS4,Monoclinic,13,38.534,25.974,63.62617282590269
mp-bshlc,Na6Ti2O7,Monoclinic,13,46.367,25.335,64.29474996351165
mp-ofb,NbInO4,Monoclinic,13,161.141,59.303,158.4691032067747
mp-brhj,Bi2PdO4,Tetragonal,130,51.718,16.451,44.62174972757205
mp-bctcs,Cu(BiO2)2,Tetragonal,130,56.918,26.984,69.90501475690054
mp-bgkhj,Ca5(CoN2)2,Tetragonal,130,66.312,33.994,87.09866119435024
mp-bjerd,Bi2AuO5,Tetragonal,130,124.209,53.326,139.94999966193453
mp-cgosh,KPtN,Tetragonal,131,66.018,33.563,86.0984263072227
mp-xch,Ca(BC)2,Tetragonal,131,131.155,81.551,202.65084259267056
mp-xpr,Y(BC)2,Tetragonal,131,170.622,110.229,272.0925774069877
mp-bdfu,TmCoC,Tetragonal,131,145.684,64.185,167.89771676871422
mp-becs,DyCoC,Tetragonal,131,153.834,63.79,168.1305592698918
mp-beuo,Dy(BC)2,Tetragonal,131,175.354,114.935,282.9791838495344
mp-beyc,HoCoC,Tetragonal,131,147.431,58.45,154.8820004473353
mp-bfry,YCoC,Tetragonal,131,141.273,58.224,153.5740844032586
mp-bqjt,CaNiN,Tetragonal,131,107.264,55.197,141.345925403659
mp-bsae,TePdI,Tetragonal,131,24.702,12.965,33.10347727716461
mp-bsak,SrLiN,Tetragonal,131,54.044,28.446,72.60030337184774
mp-byhp,TaO2F,Tetragonal,131,183.266,91.41,235.13603314369126
mp-cdlh,TiOF2,Tetragonal,131,134.531,70.894,180.90478016468313
mp-braqd,Li2FeS2,Tetragonal,132,29.394,13.543,35.21992114032932
mp-byhvh,Li2CuS2,Tetragonal,132,21.596,10.234,26.51383828743569
mp-bbbk,Ti(SnO2)2,Tetragonal,135,63.04,19.604,53.28819608669822
mp-bgyp,Cu(AsO2)2,Tetragonal,135,19.387,11.732,29.288119783097017
mp-bhgd,Sn(PbO2)2,Tetragonal,135,47.458,17.649,47.10745441592771
mp-bogx,Mg(SbO2)2,Tetragonal,135,49.538,20.282,53.53926347574839
mp-bscn,Ca2GeN2,Tetragonal,135,77.721,54.318,132.1647117618208
mp-hzg,Zn(SbO2)2,Tetragonal,135,43.305,12.537,34.300908832448826
mp-oqa,YB2C,Tetragonal,135,177.47,137.397,327.63857396235034
mp-bdoc,Li3CuO3,Tetragonal,136,81.806,35.049,92.00713968488272
mp-lgl,Li2TiF6,Tetragonal,136,52.093,30.935,77.4700214460457
mp-cgoyc,Li6CrN4,Tetragonal,137,84.311,72.584,169.197512314257
mp-cgozu,Na6MoN4,Tetragonal,137,54.672,37.513,91.59077167057843
mp-cgpee,Na6WN4,Tetragonal,137,53.691,38.074,92.38442058378988
mp-cgpgw,Li6IrN4,Tetragonal,137,83.44,58.897,143.03641494484458
mp-cgphj,Li6FeN4,Tetragonal,137,76.66,69.192,159.56816974850585
mp-cgpks,Li6OsN4,Tetragonal,137,84.062,64.411,153.92014876325425
mp-fet,Li6WN4,Tetragonal,137,84.394,68.603,161.93152023245332
mp-cfhl,NaBH4,Tetragonal,137,19.433,11.009,27.780935433139035
mp-iwe,Y(BRh)4,Tetragonal,137,229.147,99.894,261.65951438968165
mp-brbbu,Li6MnS4,Tetragonal,137,42.149,26.741,66.21900985064104
mp-naq,Li6MoN4,Tetragonal,137,83.422,67.066,158.67614570229287
mp-gix,Sr2SnO4,Tetragonal,138,106.729,50.94,131.84429410956355
mp-oxq,TbTiGe,Tetragonal,139,83.674,52.086,129.40666586167308
mp-cfyae,GaCo2Ni,Tetragonal,139,177.04,60.729,163.492984595733
mp-cfyag,FeSnRh2,Tetragonal,139,177.299,68.595,182.27790569233227
mp-cfyak,CrSnRh2,Tetragonal,139,167.812,69.419,183.02026001693272
mp-cfybd,CoSnRh2,Tetragonal,139,185.482,68.25,182.38041943601365
mp-cgina,UTl2O4,Tetragonal,139,42.627,11.277,31.089424330617
mp-cgine,K2PuO4,Tetragonal,139,53.382,28.851,73.34040613343069
mp-cginl,Zr(VGa2)2,Tetragonal,139,131.585,88.202,216.28124559743415
mp-cginn,Hf(VGa2)2,Tetragonal,139,133.265,85.459,211.22596148614952
mp-cgins,Ho(TiGa2)2,Tetragonal,139,96.685,60.465,150.10420724922975
mp-cginx,Rb2CuF4,Tetragonal,139,35.076,15.978,41.61509291619227
mp-cgiof,Cs2CaCl4,Tetragonal,139,17.305,8.639,22.219523978597614
mp-cgiou,Eu2TiO4,Tetragonal,139,133.071,71.88,182.7373603938076
mp-cgipc,Cs2PuO4,Tetragonal,139,36.666,19.028,48.66558547889572
mp-cgiqe,Sc(TiGa2)2,Tetragonal,139,96.87,66.519,162.38742798820596
mp-cgiqf,Ba2RuO4,Tetragonal,139,96.473,52.327,132.94459639322773
mp-cgiqg,Tm(TiGa2)2,Tetragonal,139,96.793,62.39,154.06749864642302
mp-cgiqu,Cs2MnCl4,Tetragonal,139,17.789,7.682,20.14604468541663
mp-cgirh,Cs2CuF4,Tetragonal,139,24.684,10.938,28.59092043769855
mp-cgirj,Cs2CaBr4,Tetragonal,139,13.971,6.614,17.137629484616813
mp-cgirp,Cs2YbH4,Tetragonal,139,15.699,11.197,27.138904981644764
mp-cgirq,Cs2NpO4,Tetragonal,139,34.259,21.565,53.47475523153883
mp-cgisc,Rb2ZnF4,Tetragonal,139,37.238,17.944,46.38192821114008
mp-cgisu,Zr(TiGa2)2,Tetragonal,139,112.537,70.165,174.27564997694813
mp-cgity,Cs2TmH4,Tetragonal,139,14.059,10.2,24.640895813047713
mp-cgitz,Lu(TiGa2)2,Tetragonal,139,98.232,62.927,155.563276344083
mp-cgiuc,Tl2CuF4,Tetragonal,139,36.339,9.03,25.01775165823782
mp-cgiun,Sr2ZrO4,Tetragonal,139,117.107,66.772,168.32431405452854
mp-cgiup,Sr4Bi2O,Tetragonal,139,37.73,25.111,61.65495744788541
mp-cgiuw,Er(Al2Mo)2,Tetragonal,139,134.393,84.07,208.69365681612481
mp-cgivc,Dy(TiGa2)2,Tetragonal,139,95.067,59.557,147.80555598709822
mp-cgivd,Sc(VGa2)2,Tetragonal,139,118.477,80.656,197.21506994705186
mp-cgiyr,HfAl5Ni2,Tetragonal,139,126.648,84.924,208.22920219933403
mp-cgozk,Ca2CoN2,Tetragonal,139,74.548,47.916,118.38406875828545
mp-pgp,ZrVGe,Tetragonal,139,144.113,72.062,185.30026517393898
mp-pgq,HfVGe,Tetragonal,139,154.643,74.585,192.76459552583592
mp-phv,Sc2BC2,Tetragonal,139,137.733,68.589,176.47330077336917
mp-pll,Ba(CuSe)2,Tetragonal,139,67.478,21.124,57.38397842170712
mp-pmb,Lu(SiRu)2,Tetragonal,139,160.669,75.506,195.83984880352568
mp-pmd,YTiGe,Tetragonal,139,82.596,52.547,130.05992677510113
mp-pnu,Pr2CuO4,Tetragonal,139,151.748,37.87,104.88501814996127
mp-pvl,Sr(GeRh)2,Tetragonal,139,80.352,53.198,130.74109872423145
mp-pvm,Ba(GeRh)2,Tetragonal,139,65.958,39.426,98.62680561314791
mp-cjiov,La2CuO4,Tetragonal,139,124.285,58.378,151.425302724977
mp-qcj,Ca(Al2Cu)4,Tetragonal,139,81.186,60.736,145.83993132956942
mp-ckrev,Tb2SeO2,Tetragonal,139,84.414,27.253,73.81526472129627
mp-qif,Y(Al2Cu)4,Tetragonal,139,104.534,61.012,153.22560201167067
mp-qnp,Ba(PIr)2,Tetragonal,139,96.768,48.721,125.15803717130005
mp-qob,Cs(MnP)2,Tetragonal,139,45.548,30.749,75.3018290370565
mp-qxv,Er(TiGa2)2,Tetragonal,139,98.06,61.377,152.34591803845797
mp-qxw,Er(VGa2)2,Tetragonal,139,115.021,76.361,187.57371964814536
mp-qyf,Y(TiGa2)2,Tetragonal,139,94.316,60.055,148.62064302644586
mp-rvu,Er(PRu)2,Tetragonal,139,169.707,99.704,250.12803441382988
mp-rvv,Sm(PRu)2,Tetragonal,139,142.12,93.691,230.4356385816006
mp-rvx,Lu(FeB)2,Tetragonal,139,187.743,76.06,201.03207347537654
mp-rvz,Ce(AgGe)2,Tetragonal,139,74.431,36.15,93.33890623373921
mp-rwj,Ba(BIr)2,Tetragonal,139,100.302,64.05,158.42755811659487
mp-rwl,Tb(FeB)2,Tetragonal,139,128.275,79.786,198.25389917586972
mp-rwn,Y(FeB)2,Tetragonal,139,126.563,81.112,200.5030425368
mp-rwp,K(CoS)2,Tetragonal,139,57.052,30.734,78.16595924513348
mp-rxh,Sm(SiIr)2,Tetragonal,139,166.894,104.163,258.6739040547578
mp-rxi,K(PRh)2,Tetragonal,139,54.245,32.9,82.10158969509546
mp-rxk,Lu(SiNi)2,Tetragonal,139,128.686,67.54,172.45021353709672
mp-rxl,Lu(SiOs)2,Tetragonal,139,179.764,83.799,217.58682266956197
mp-svc,LiTlPd2,Tetragonal,139,94.163,36.325,96.55861654444286
mp-sxr,Sr(CdGa)2,Tetragonal,139,43.715,27.739,68.68843599733138
mp-tat,Ba(AlSi)2,Tetragonal,139,38.836,13.543,36.398055624331995
mp-tvi,Yb(MnSi)2,Tetragonal,139,101.513,60.872,152.19490935959783
mp-tvj,Lu(NiGe)2,Tetragonal,139,113.636,44.0,116.91067995469047
mp-uez,Cs2AgF4,Tetragonal,139,30.729,10.708,28.780943563827204
mp-ufk,Ca4Sb2O,Tetragonal,139,49.159,32.933,80.76370557618758
mp-upa,Ba(AgGe)2,Tetragonal,139,55.955,30.515,77.46346116039923
mp-upb,Ca(ZnGe)2,Tetragonal,139,57.614,15.908,43.70178335364239
mp-wkz,Cs2CaF4,Tetragonal,139,32.545,14.702,38.33366842625315
mp-xcf,ScSi3Ni2,Tetragonal,139,135.947,70.188,179.64732751360273
mp-xqe,Sm(CoSi)2,Tetragonal,139,118.652,91.081,217.57144332124633
mp-xsq,Pr2TeO2,Tetragonal,139,70.35,34.028,87.91008658467918
mp-xsr,Sm2TeO2,Tetragonal,139,75.322,36.804,94.94751300376757
mp-xst,Gd2TeO2,Tetragonal,139,73.923,35.465,91.72625996174689
mp-xsu,Tb2TeO2,Tetragonal,139,79.972,38.705,99.98473316799523