material_id,formula_pretty,symmetry.crystal_system,symmetry.number,bulk_modulus.vrh,shear_modulus.vrh,youngs_modulus_vrh
mp-cdifc,TiPt3,Hexagonal,194,233.898,90.295,240.00128687393388
mp-cdign,LaTb3,Hexagonal,194,34.964,19.382,49.07744364871172
mp-cdiio,Tb3Si,Hexagonal,194,58.091,20.696,55.49734585498207
mp-cdipq,SmMg3,Hexagonal,194,38.754,17.395,45.393301286127915
mp-cdirt,SmLu3,Hexagonal,194,43.336,28.525,70.17740533516681
mp-cdjei,Sc3Cd,Hexagonal,194,59.118,34.349,86.32753261881031
mp-cdjfb,ScAu3,Hexagonal,194,116.515,29.776,82.31591649289123
mp-cdjgv,NaBi3,Hexagonal,194,32.912,11.214,30.21079137789905
mp-cdjpm,NaCd3,Hexagonal,194,27.528,10.71,28.441528072544855
mp-cdjti,Lu3Al,Hexagonal,194,53.348,33.866,83.85410918467332
mp-cdjuq,Lu3Ga,Hexagonal,194,53.035,27.112,69.49400044034647
mp-cdjvg,NaLi3,Hexagonal,194,11.571,5.99,15.325470112768098
mp-cdjzb,LiLa3,Hexagonal,194,23.83,8.867,23.665710392374027
mp-cdkaz,Ho3In,Hexagonal,194,49.414,27.113,68.76254476918251
mp-cdkjk,LuMg3,Hexagonal,194,41.172,18.141,47.4534351849891
mp-cdkjp,Ho3Lu,Hexagonal,194,44.373,30.304,74.05392464952912
mp-cdlhy,Ho3Mg,Hexagonal,194,41.03,25.844,64.07814119005734
mp-cdlib,NdDy3,Hexagonal,194,38.234,22.519,56.470387287660046
mp-cdlir,RuRh3,Hexagonal,194,267.514,110.675,291.7860788290188
mp-cdllj,Re3Tc,Hexagonal,194,348.896,170.331,439.47567062141184
mp-cdlnk,ReH3,Hexagonal,194,162.958,27.22,77.35306134153855
mp-cdltp,Re3Ru,Hexagonal,194,350.663,184.629,471.1908052793991
mp-cdnhb,PrTm3,Hexagonal,194,40.703,24.774,61.78649059455485
mp-cdnhi,PrHo3,Hexagonal,194,39.752,23.682,59.27508273517191
mp-cdnoc,MoRu3,Hexagonal,194,295.76,165.564,418.5851633860287
mp-cdoie,NdSc3,Hexagonal,194,44.174,24.132,61.24364977593934
mp-cdoxj,Nd3Zr,Hexagonal,194,41.816,20.853,53.6421585088277
mp-cdozm,NiAu3,Hexagonal,194,131.736,26.657,74.91775560428098
mp-cdpas,Ni3Au,Hexagonal,194,173.553,46.299,127.55437461505083
mp-cdpcv,Ni3Sb,Hexagonal,194,161.359,56.636,152.1112954857753
mp-cdplu,Li3Ag,Hexagonal,194,26.62,7.681,21.021166996036147
mp-cdpvj,HoBr3,Hexagonal,194,3.636,2.449,5.999930822789548
mp-cdqwu,PrLu3,Hexagonal,194,41.583,26.103,64.75863389945111
mp-cdrdo,MgW3,Hexagonal,194,151.681,34.379,95.89223592523426
mp-cdrdu,MgZr3,Hexagonal,194,80.271,37.943,98.33511378051055
mp-cdsgj,SmGe3,Hexagonal,194,65.983,17.126,47.28687072881553
mp-cdsgw,SmTm3,Hexagonal,194,41.991,26.898,66.49570724336203
mp-cdsow,Sm3Y,Hexagonal,194,35.996,20.299,51.261197440114735
mp-cdspz,ThMg3,Hexagonal,194,46.981,20.296,53.223707564547034
mp-cdsrd,Sm3I,Hexagonal,194,32.87,4.8629999999999995,13.903349569452901
mp-cdssx,Sm3Cd,Hexagonal,194,41.081,20.619,52.99135456896192
mp-cdsxt,SmCd3,Hexagonal,194,54.374,20.865,55.496429584698916
mp-cdtdm,Sm3Er,Hexagonal,194,36.589,20.829,52.52083164109161
mp-cdtol,Sm3Ho,Hexagonal,194,36.414,20.498,51.77838406042855
mp-cdtpj,SmMn3,Hexagonal,194,72.777,29.185,77.23125254528999
mp-cdtpt,Tm3Si,Hexagonal,194,59.796,24.042,63.60192148650642
mp-cduaa,Zn3Rh,Hexagonal,194,125.139,36.556,99.9367229308717
mp-cduiv,Sm3Hg,Hexagonal,194,44.884,17.74,47.024643288361595
mp-cdvtf,HfMg3,Hexagonal,194,55.161,32.213,80.89243908323891
mp-cdxmr,HoGa3,Hexagonal,194,69.96,41.108,103.12541284842303
mp-cdycz,Na3Rh,Hexagonal,194,20.449,9.445,24.554571773646742
mp-cdyxh,Na3Cd,Hexagonal,194,11.971,6.122,15.69116588557155
mp-cdyzn,CaAc3,Hexagonal,194,22.937,13.541,33.943428854186905
mp-blw,BN,Hexagonal,194,102.457,73.485,177.91888221532548
mp-ceadr,CuAg3,Hexagonal,194,96.627,20.565,57.60811315011307
mp-cearb,BaSr3,Hexagonal,194,10.675,5.229,13.485160653889515
mp-ceasu,Ca3Tl,Hexagonal,194,23.597,8.383,22.48620581251421
mp-ceate,PmHo3,Hexagonal,194,40.295,24.832,61.80094951172479
mp-ceaxt,Al3Fe,Hexagonal,194,119.201,55.328,143.7440549438042
mp-cebnr,AgAu3,Hexagonal,194,121.49,15.796,45.419533589645134
mp-cebog,Ac3Pr,Hexagonal,194,25.621,14.427,36.44109434768321
mp-ceboh,Ac3Th,Hexagonal,194,32.211,18.276,46.10773850612224
mp-cebxy,Ac3Nd,Hexagonal,194,26.403,14.982,37.796899003089464
mp-osv,HfP,Hexagonal,194,147.126,83.603,210.86777388515011
mp-osw,HfAs,Hexagonal,194,127.118,65.141,166.91193124671048
mp-cevzp,TcN,Hexagonal,194,343.828,144.403,380.00943301184554
mp-cevzq,TcB,Hexagonal,194,288.337,42.622,121.86147542674188
mp-cevzs,TcB,Hexagonal,194,301.077,189.179,469.253313359453
mp-cewff,RhN,Hexagonal,194,273.586,88.779,240.34011089818227
mp-cewgy,OsC,Hexagonal,194,374.861,95.289,263.53680423929717
mp-cewhi,NiBi,Hexagonal,194,88.03,36.741,96.76127815949819
mp-cewiv,NbN,Hexagonal,194,304.91,165.167,419.7156115166539
mp-cewjp,NbC,Hexagonal,194,273.377,151.933,384.55789913935706
mp-cewka,NbC,Hexagonal,194,236.476,97.351,256.8120584249218
mp-cewoy,MnP,Hexagonal,194,105.134,80.838,193.03805932768017
mp-cgiwj,GeRu,Cubic,198,171.945,78.948,205.4067193245267
mp-cgjch,GaPt,Cubic,198,167.158,51.944,141.2055559595098
mp-cjjjk,MnGe,Cubic,198,142.529,76.408,194.47256914850345
mp-qdk,AlPt,Cubic,198,179.259,74.581,196.49263880115882
mp-cdb,MnSi,Cubic,198,203.381,142.935,347.41735798283844
mp-cfb,SiRh,Cubic,198,221.514,83.86,223.38993797451104
mp-cfi,AlAu4,Cubic,198,127.118,15.302,44.13506091928522
mp-hh,SiRu,Cubic,198,203.638,99.337,256.33063811807375
mp-bewj,CrGe,Cubic,198,157.411,86.842,220.0580862281447
mp-bewo,GeRh,Cubic,198,101.132,47.092,122.29398237885464
mp-bfln,FeGe,Cubic,198,156.708,82.565,210.69238609778733
mp-drs,SiOs,Cubic,198,209.102,77.908,207.90351232959074
mp-brcz,H3N,Cubic,198,8.895,3.613,9.546462307743084
mp-bsxx,BeAu,Cubic,198,148.197,42.582,116.58019201803057
mp-mf,SnRh,Cubic,198,140.398,54.997,145.9355999042401
mp-bgksl,ZrSb,Cubic,198,104.291,59.306,149.5671126366614
mp-kqn,AlPd,Cubic,198,149.85,67.929,177.03606494176574
mp-lfk,CrSi,Cubic,198,183.655,118.732,293.04525649659473
mp-lfl,CoSi,Cubic,198,226.984,115.85,297.01841561642664
mp-lxz,SiO2,Cubic,198,19.957,41.802,73.84637638311055
mp-bhn,FeSi,Cubic,198,201.745,142.052,345.14788382508993
mp-efw,Mn4Al11,Triclinic,2,123.19,86.605,210.48902186660823
mp-st,MnP4,Triclinic,2,137.01,114.123,267.9674877035835
mp-beele,Al23B50,Triclinic,2,184.943,107.776,270.7370921016292
mp-bfzng,NbS3,Triclinic,2,16.691,12.414,29.84330606366124
mp-bgkms,MnP4,Triclinic,2,137.141,115.49,270.5299106493861
mp-bkoxy,CaC2,Triclinic,2,58.929,20.203,54.39303153967206
mp-bwiae,VS2,Triclinic,2,12.703,11.615,26.7055768844019
mp-oar,TcS2,Triclinic,2,26.399,18.646,45.277861328863594
mp-bgisu,FeP4,Orthorhombic,20,144.455,118.841,279.79520304922437
mp-bgitn,NbSe2,Orthorhombic,20,17.043,8.66,22.216986736690696
mp-btoa,Mg2Zn11,Cubic,200,68.686,39.903,100.2882453803652
mp-qpv,Al12W,Cubic,204,92.968,58.228,144.51332515453888
mp-bvr,Sb3Ir,Cubic,204,98.2,60.31,150.18449184300246
mp-byr,CoSb3,Cubic,204,84.037,57.702,140.86538255657447
mp-caf,P3Rh,Cubic,204,149.168,97.011,239.18244976171457
mp-umv,P3Ir,Cubic,204,170.079,114.248,280.0398253408809
mp-clk,Al12Re,Cubic,204,98.031,77.342,183.71241917966805
mp-ytb,Al12Tc,Cubic,204,96.935,75.356,179.54316472808407
mp-cwu,CoP3,Cubic,204,143.928,115.879,274.0811309290567
mp-dkn,NiP3,Cubic,204,125.545,75.904,189.51805064314897
mp-edh,NO2,Cubic,204,5.601,3.922,9.539401592279855
mp-btax,Be17Ru3,Cubic,204,151.947,117.848,280.91849504522486
mp-rk,CoAs3,Cubic,204,108.351,83.076,198.49682106392828
mp-beuei,As3Ir,Cubic,204,128.27,83.893,206.6310563192469
mp-ve,Al12Mo,Cubic,204,91.875,58.772,145.32755228067236
mp-mcs,As3Rh,Cubic,204,115.538,71.782,178.40021999254293
mp-cdhjx,FeSb3,Cubic,204,100.502,47.232,122.50513043029439
mp-bpc,CuS2,Cubic,205,53.369,32.823,81.71656135904215
mp-qbc,Te2Ir,Cubic,205,111.463,53.591,138.56570621423782
mp-cae,Sb2Pd,Cubic,205,87.651,29.488,79.5438197516764
mp-xct,GaAs,Cubic,205,57.058,40.993,99.21810340910699
mp-xcv,AlSb,Cubic,205,48.47,29.724,74.03759703998082
mp-cpe,MgF2,Cubic,205,104.298,56.418,143.39788871198334
mp-ctc,Te2Ru,Cubic,205,110.797,76.97,187.4932047996756
mp-cvy,RuSe2,Cubic,205,137.146,92.704,226.9714585493769
mp-bdru,CO2,Cubic,205,4.63,2.479,6.310704991141793
mp-dac,RuS2,Cubic,205,172.042,121.491,295.02662507116344
mp-behd,As2Pd,Cubic,205,110.797,51.467,133.69918769701297
mp-dbq,CoS2,Cubic,205,127.327,72.8,183.43917270070648
mp-bexx,NiSe2,Cubic,205,96.857,38.657,102.35402043872331
mp-bfef,SiP2,Cubic,205,108.341,82.444,197.2885868941534
mp-bfob,MnSe2,Cubic,205,66.359,30.223,78.71832757522895
mp-dek,Te2Os,Cubic,205,130.119,88.304,216.04069181320392
mp-bgjh,NiAs2,Cubic,205,105.659,57.182,145.32895491488912
mp-bgkb,MnTe2,Cubic,205,49.969,24.456,63.07746927960633
mp-bhab,CoSe2,Cubic,205,99.992,63.944,158.1254012750055
mp-is,FeS2,Cubic,205,145.937,135.327,310.1224270437486
mp-bhlz,NiP2,Cubic,205,132.249,98.281,236.30597808810816
mp-djs,CuSe2,Cubic,205,74.484,24.776,66.90921352949708
mp-bhvk,Bi2Pt,Cubic,205,82.069,26.028,70.61850014876852
mp-dkw,CdO2,Cubic,205,105.752,37.359,100.26959015270083
mp-dsr,As2Pt,Cubic,205,136.486,84.294,209.70964766927523
mp-dvp,MgO2,Cubic,205,129.089,86.082,211.28206393591196
mp-dwe,MgTe2,Cubic,205,37.266,22.167,55.497173127309374
mp-dxh,GeO2,Cubic,205,229.91,139.96,349.0506483144307
mp-vq,Sb2Pt,Cubic,205,105.593,55.904,142.55450248066052
mp-bav,SnO2,Cubic,205,192.235,99.178,253.87433249541712
mp-bcc,P2Pt,Cubic,205,175.121,117.617,288.3057947572242
mp-bck,Sb2Au,Cubic,205,72.555,23.812,64.3917099351077
mp-bda,Te2Rh,Cubic,205,95.422,48.854,125.19610137264264
mp-moi,ZnO2,Cubic,205,138.631,62.222,162.37324229108063
mp-ner,RuO2,Cubic,205,273.128,147.463,374.91606053077686
mp-bof,Nd2O3,Cubic,206,124.063,50.641,133.7276670222075
mp-boq,Tb2O3,Cubic,206,141.499,61.887,162.03768527953224
mp-ccx,Lu2O3,Cubic,206,156.458,73.089,189.72396063510325
mp-chz,Mg3N2,Cubic,206,110.105,77.845,188.9947900945708
mp-cpz,Tm2O3,Cubic,206,150.148,70.015,181.7885942600666
mp-bbdh,Be3N2,Cubic,206,214.318,185.759,432.3613558107571
mp-cyo,Mg3As2,Cubic,206,49.199,27.37,69.26557390822269
mp-ik,Sm2O3,Cubic,206,130.35,55.209,145.13643052577092
mp-bhle,In2O3,Cubic,206,144.766,57.394,152.08361786646927
mp-dke,La2O3,Cubic,206,114.974,39.632,106.6426200533605
mp-dmf,Dy2O3,Cubic,206,143.814,63.498,166.05469824221117
mp-dya,Y2O3,Cubic,206,138.413,62.199,162.28777701607328
mp-bcsws,Gd2O3,Cubic,206,131.73,55.657,146.3584530672268
mp-bgiab,Be3P2,Cubic,206,91.876,71.729,170.75102109933007
mp-bad,Er2O3,Cubic,206,145.923,65.426,170.757705823786
mp-brxbr,Cu2O3,Cubic,206,161.174,53.715,145.03310957733737
mp-bseql,Al2O3,Cubic,206,212.727,127.515,318.83796003244106
mp-bgm,Ca3N2,Cubic,206,67.434,33.75,86.77358166844594
mp-nzw,Zn3N2,Cubic,206,131.064,56.059,147.19132730700656
mp-cedqq,Sr3N2,Cubic,206,50.639,22.587,58.99032593522212
mp-bjqg,Ta2H,Orthorhombic,21,203.084,67.791,183.009656692411
mp-tc,SrSi2,Cubic,212,58.246,29.769,76.30705338203583
mp-bewwg,V8C7,Cubic,212,249.054,178.711,432.64919113744537
mp-ktv,BaSi2,Cubic,212,52.121,33.929,83.63841191957623
mp-yb,Mg3Ru2,Cubic,213,105.762,52.226,134.53348174890124
mp-bgizp,As4C3,Cubic,215,117.639,78.133,191.91136035958706
mp-bgkps,Ge3As4,Cubic,215,47.172,29.44,73.11058471185568
mp-bgltp,Sn3As4,Cubic,215,34.489,21.164,52.71021466569313
mp-bgmhs,Si3As4,Cubic,215,58.179,38.466,94.55838991000125
mp-cezyj,IrC,Cubic,216,274.838,72.735,200.51633088473767
mp-cezzu,VN,Cubic,216,218.203,35.297,100.47340017190747
mp-cfaab,InBi,Cubic,216,35.088,14.188,37.50842929377491
mp-cfadg,HfN,Cubic,216,196.209,85.489,223.942764760071
mp-cfalg,HfC,Cubic,216,158.82,30.036,84.7644555534496
mp-owi,BAs,Cubic,216,131.927,124.769,284.5905268792623
mp-cfhme,BiB,Cubic,216,73.075,59.35,140.11670555505697
mp-cfiuk,TlAs,Cubic,216,36.447,17.574,45.42155144781941
mp-cfiuq,TlP,Cubic,216,45.906,24.306,61.97921989334914
mp-cfius,TlN,Cubic,216,89.83,34.723,92.27910644844236
mp-cfjlv,CaSe,Cubic,216,32.551,6.014,16.99533531403436
mp-cfkbr,WC,Cubic,216,262.759,21.556,62.94667793977277
mp-cfkds,Ti2Sn,Cubic,216,73.05,17.188,47.81393851179243
mp-cfkmw,CrTe,Cubic,216,44.382,5.567,16.030735014021758
mp-cfkpf,IrN,Cubic,216,257.278,42.404,120.5870357413926
mp-cfkus,MnN,Cubic,216,260.012,47.747,134.97877665523453
mp-cfkut,MnAs,Cubic,216,33.641,3.869,11.178460769906101
mp-cfkyc,MoC,Cubic,216,240.168,40.702,115.5769416215847
mp-cfkyg,MnTe,Cubic,216,35.201,10.861,29.54443045919769
mp-cflhi,NbC,Cubic,216,206.433,63.06,171.696987685368
mp-cfloh,PrN,Cubic,216,94.434,24.783,68.36821136374701
mp-cflry,RhN,Cubic,216,220.176,21.628,62.82682956977582
mp-cflsk,ScP,Cubic,216,63.76,9.231,26.41808698774631
mp-cflso,ScN,Cubic,216,140.651,45.635,123.54353718444443
mp-cflti,RuN,Cubic,216,260.463,51.935,146.09481203589482
mp-cflue,RuC,Cubic,216,269.305,63.474,176.55121895043428
mp-cfluz,SiSn,Cubic,216,55.027,37.435,91.54546655572892
mp-cflvg,SnC,Cubic,216,122.138,84.771,206.53134209248978
mp-cflvs,TaC,Cubic,216,224.634,76.175,205.3168602023526
mp-cflvt,TaN,Cubic,216,247.811,30.186,87.0244986408038
mp-cflwi,TcC,Cubic,216,239.569,47.813,134.4917462988572
mp-cflyc,ZrC,Cubic,216,145.849,37.043,102.45508873554013
mp-cfycs,GaBi,Cubic,216,36.141,20.084,50.835383255386866
mp-cfycy,AlBi,Cubic,216,38.773,21.569,54.58526871809005
mp-cfydi,NbN,Cubic,216,223.571,24.551,71.05218246450268
mp-cfydx,CrN,Cubic,216,215.484,80.193,214.02854999071073
mp-cfyee,PtC,Cubic,216,213.851,22.598,65.48728238307253
mp-cgihm,Be5Fe,Cubic,216,146.818,119.851,282.6434835705553
mp-pvj,ZnS,Cubic,216,69.082,33.55,86.6264800910314
mp-brf,HgS,Cubic,216,50.248,15.799,42.90071253670223
mp-bsm,GaSb,Cubic,216,44.793,28.856,71.26487133274115
mp-btu,ZnSe,Cubic,216,56.491,27.288,70.51060765090642
mp-buy,Be5Au,Cubic,216,138.173,114.779,269.6670474912053
mp-thf,MgSe,Cubic,216,45.241,16.372,43.8289941681186
mp-thg,MgS,Cubic,216,55.408,19.977,53.501165643578716
mp-thh,MgTe,Cubic,216,35.367,12.698,34.02226865546006
mp-tjv,YN,Cubic,216,112.414,33.918,92.45533588748786
mp-tkn,CuN,Cubic,216,161.331,29.635,83.77541268194102
mp-dbymz,MoS2,Cubic,216,60.301,32.665,83.00676826584507
mp-cex,BP,Cubic,216,162.017,161.948,364.4218001015434
mp-chh,BeSe,Cubic,216,74.87,53.631,129.88084692766344
mp-chq,AlP,Cubic,216,82.769,47.415,119.4379492056729
mp-cnk,AlN,Cubic,216,194.648,120.714,300.1039483664416
mp-cqk,BeO,Cubic,216,207.897,153.975,370.46555356026875
mp-cqp,MnS,Cubic,216,51.147,15.494,42.218868570752065
mp-cyk,ZnO,Cubic,216,129.269,40.506,110.02591802256762
mp-bdps,InSb,Cubic,216,36.737,19.944,50.66378204448542
mp-beaz,InAs,Cubic,216,48.543,25.68,65.49135281859097
mp-bect,InP,Cubic,216,59.35,31.656,80.63218219793423
mp-befb,InN,Cubic,216,121.5,51.744,135.93484590768875
mp-dfo,AlAs,Cubic,216,67.291,39.773,99.6800463777592
mp-dfs,ZnTe,Cubic,216,42.833,22.571,57.596165929701456
mp-bhwp,CuI,Cubic,216,38.237,15.17,40.19446732008531
mp-bhxh,CuBr,Cubic,216,42.59,11.405,31.41117693551284
mp-bhxi,CuCl,Cubic,216,56.095,10.104,28.595120326925983
mp-bhxt,AgI,Cubic,216,25.685,6.593,18.22005122656848
mp-dkf,MnSe,Cubic,216,53.225,13.311,36.86021860150532
mp-dqz,CdS,Cubic,216,53.24,17.126,46.402486683329
mp-dru,GaP,Cubic,216,76.335,51.463,126.06020275040288
mp-js,BeTe,Cubic,216,56.315,40.518,98.04089758095702
mp-dtm,GaAs,Cubic,216,60.742,40.715,99.83805029133269
mp-dwy,AlSb,Cubic,216,49.576,28.771,72.32243485315409
mp-dzn,CdSe,Cubic,216,44.641,14.743,39.842871719155696
mp-eba,HgTe,Cubic,216,34.16,13.132,34.92113344635504
mp-efe,UNi5,Cubic,216,183.584,76.268,200.97327135976525
mp-btgc,DyCu5,Cubic,216,107.72,23.276,65.13646526342528
mp-btgd,ErCu5,Cubic,216,106.265,14.638,41.98613703502653
mp-btgy,TmCu5,Cubic,216,109.138,13.382,38.569591321494386
mp-bthb,ZrCu5,Cubic,216,136.626,60.974,159.23411924766165
mp-op,AgSe,Cubic,216,50.145,2.939,8.6480459204298
mp-pq,CdTe,Cubic,216,35.041,13.013,34.7387485355861
mp-qg,BeS,Cubic,216,92.273,66.879,161.59574307386137
mp-rg,CoN,Cubic,216,248.591,47.951,135.16245366021437
mp-bgjpo,CaAu5,Cubic,216,98.377,25.385,70.12349244655493
mp-bhans,HoCu5,Cubic,216,104.747,14.966,42.85690285443505
mp-za,Be5Pd,Cubic,216,142.084,131.95,302.27740889498784
mp-kiu,FeN,Cubic,216,272.864,79.289,216.8617258456299
mp-brgvl,CuS,Cubic,216,81.684,16.632,46.72473132480397
mp-lyc,SiC,Cubic,216,212.682,187.246,434.28832940098783
mp-bfo,HgSe,Cubic,216,42.533,13.947,37.71826656351999
mp-bfy,GaN,Cubic,216,171.704,103.147,257.81553101855366
mp-bxhmx,AgBr,Cubic,216,27.578,4.678,13.28294691804329
mp-cetty,BSb,Cubic,216,98.422,83.541,195.35132856045428
mp-cevra,YC,Cubic,216,82.805,15.041,42.54687706865663
mp-cevro,TiN,Cubic,216,201.627,80.583,213.32903970011552
mp-cewnt,ZnN,Cubic,216,135.277,21.899,62.333432789376474
mp-caq,Zn8Cu5,Cubic,217,105.749,32.407,88.21026096369553
mp-cry,SiF4,Cubic,217,7.258,4.652,11.499203208960871
mp-bdzw,U2F9,Cubic,217,78.546,42.193,107.35599123927855
mp-det,Mg17Al12,Cubic,217,49.768,19.098,50.796447643139636
mp-bfyrv,BeF2,Cubic,217,8.258,14.198,27.07645889356461
mp-rel,Si3N4,Cubic,220,254.688,149.374,374.84086255224764
mp-rgn,Zr3N4,Cubic,220,200.814,116.039,291.89401210887974
mp-bzv,Th3P4,Cubic,220,108.466,57.835,147.32076827934966
mp-xej,Sc4C3,Cubic,220,113.058,68.134,170.20987544560873
mp-cqj,Li15Ge4,Cubic,220,28.204,19.528,47.59851553677742
mp-bdwf,Ce2C3,Cubic,220,115.855,71.811,178.5437665603182
mp-bebw,U3Se4,Cubic,220,64.012,14.148,39.53156396228611
mp-dgu,Nd3Te4,Cubic,220,53.979,16.8,45.66276036858624
mp-btse,Ba4Bi3,Cubic,220,24.169,11.495,29.766004321325678
mp-pc,U3Sb4,Cubic,220,75.787,32.637,85.62043889183762
mp-bghix,Li15Au4,Cubic,220,28.91,13.292,34.57684789346344
mp-bgism,Y4Sb3,Cubic,220,65.708,31.924,82.42359561314657
mp-bgkzh,Li15Si4,Cubic,220,29.691,20.993,50.966951347373396
mp-xi,U3As4,Cubic,220,100.456,49.726,128.0496832870969
mp-bhv,La3Te4,Cubic,220,50.175,25.245,64.85754608294931
mp-ovf,SiOs,Cubic,221,290.957,121.446,319.83771211595496
mp-cezyi,ZrB6,Cubic,221,178.43,52.095,142.42413008503794
mp-cfaac,HfN,Cubic,221,238.794,72.753,198.13697141553726
mp-cfakz,TcN,Cubic,221,335.61,116.329,312.84135301413244
mp-cfale,HfIr,Cubic,221,207.546,56.564,155.56003588917585
mp-cfann,TcB,Cubic,221,311.631,131.046,344.8058136853985
mp-cfaol,ReN,Cubic,221,361.49,59.704,169.76577919092725
mp-cfaoo,EuS,Cubic,221,79.757,18.648,51.8991498261082
mp-cfhmk,CeS,Cubic,221,119.446,40.563,109.31482468582432
mp-cfiqa,HfPd3,Cubic,221,179.875,81.621,212.69222880308286
mp-cfiqb,HfRu3,Cubic,221,232.863,85.143,227.67972939856992
mp-cfiri,HgPt3,Cubic,221,192.168,33.801,95.78691819991644
mp-cfirl,HfOs3,Cubic,221,288.028,105.077,281.05347140877524
mp-cfisw,HfAl3,Cubic,221,103.976,57.804,146.3007214306579
mp-cfixo,FeCo3,Cubic,221,191.847,114.871,287.27616355596365
mp-cfjcg,CrNi3,Cubic,221,205.939,102.844,264.5020538699888
mp-cfjnu,Co3W,Cubic,221,274.04,146.065,372.0868154330009
mp-cfjny,Cr3Ni,Cubic,221,240.418,82.757,222.71642034002028
mp-cfjnz,Co3Mo,Cubic,221,255.044,140.331,355.7464149015476
mp-cfjoa,CrCo3,Cubic,221,380.486,149.373,396.2633508972126
mp-cfjof,Cr3Fe,Cubic,221,239.14,60.631,167.71866633421203
mp-cfjqr,Co3Ni,Cubic,221,258.138,102.21,270.87846650331267
mp-cfjyo,Al3V,Cubic,221,99.015,67.277,164.56016764016445
mp-cfjyp,AlCu3,Cubic,221,138.447,41.554,113.32415487584676
mp-cfkmy,EuSe,Cubic,221,38.732,15.025,39.913845344876194
mp-cfkpr,LaSe,Cubic,221,69.443,38.027,96.47169400785855
mp-cfkqa,LaTe,Cubic,221,54.624,34.068,84.61338732949379
mp-cfkql,FeN,Cubic,221,200.505,84.859,223.10268768193436
mp-cfkuv,MnCo,Cubic,221,192.154,103.431,263.0886380150994
mp-cfkzw,NbCo,Cubic,221,207.312,70.076,188.93944239117238
mp-cflhv,NbN,Cubic,221,299.401,199.167,489.05764756007545
mp-cflij,CrN,Cubic,221,313.927,140.253,366.2203144993595
mp-cflrv,ReC,Cubic,221,395.957,151.217,402.4222956377773
mp-cflvr,TaN,Cubic,221,312.497,189.096,472.0695289471652
mp-cflvw,ZrN,Cubic,221,225.944,66.386,181.39263691015267
mp-cfmex,CrCo,Cubic,221,214.789,113.281,289.0308090049733
mp-cfnmv,MgNi,Cubic,221,92.625,22.136,61.50815470099429
mp-cfrhs,Ca3N2,Cubic,221,61.811,49.482,117.17764773641531
mp-cfrhw,Ba3N2,Cubic,221,36.533,21.825,54.60185753743608
mp-cfrhx,Sr3N2,Cubic,221,46.799,35.077,84.19547458312913
mp-cfrio,Ca3Sb2,Cubic,221,29.002,16.206,40.98416567840948
mp-cfrip,Ca3P2,Cubic,221,39.504,26.663,65.29813237816428
mp-cfrjy,Ba3Sb2,Cubic,221,20.26,11.131,28.22414568007676
mp-cfrkd,Sr3Bi2,Cubic,221,22.202,12.053,30.618318997190404