material_id,formula_pretty,symmetry.crystal_system,symmetry.number,bulk_modulus.vrh,shear_modulus.vrh,youngs_modulus_vrh
mp-ccgc,Ho(Mo3S4)2,Trigonal,148,91.502,45.48,117.0476165832255
mp-fop,MgGeO3,Trigonal,148,167.305,81.692,210.7708107339357
mp-fpb,MgTiO3,Trigonal,148,161.087,74.471,193.58184538990054
mp-cdxg,La(Mo3Se4)2,Trigonal,148,68.329,34.084,87.67408311338474
mp-gvg,KPF6,Trigonal,148,23.365,7.181,19.541081124799422
mp-beuyz,CrGeTe3,Trigonal,148,12.438,8.261,20.290792364234775
mp-bjlqm,TiCdF6,Trigonal,148,16.341,14.26,33.140084066811
mp-bmkro,Na3YCl6,Trigonal,148,20.048,8.16,21.555474349964868
mp-bmmts,Na3AlF6,Trigonal,148,47.494,23.772,61.11880804070879
mp-bqxtm,TiSnO3,Trigonal,148,25.074,17.517,42.62490777342865
mp-bqykz,CaTiO3,Trigonal,148,135.519,52.0,138.3097237638941
mp-bqzfd,Li8ZrO6,Trigonal,148,93.569,55.213,138.4139877738747
mp-bsebj,HfSnO3,Trigonal,148,22.014,14.412,35.49098754567827
mp-bskga,TiGeO3,Trigonal,148,27.439,16.375,40.974168372309805
mp-lsr,MgPdF6,Trigonal,148,30.483,22.643,54.44763104336851
mp-lss,CaPdF6,Trigonal,148,21.718,12.227,30.88502182706349
mp-mfn,CaPtF6,Trigonal,148,19.548,11.715,29.29324436106255
mp-mfo,ZnPtF6,Trigonal,148,33.853,19.578,49.24148943757894
mp-mgh,CdGeO3,Trigonal,148,147.362,45.555,123.89787403028048
mp-mgr,ZnGeO3,Trigonal,148,163.128,42.095,116.2827852840846
mp-mgw,BaSnF6,Trigonal,148,35.683,19.878,50.29473686449691
mp-nki,ZrPdF6,Trigonal,148,7.646,11.439,22.897965092940048
mp-nuw,CdPS3,Trigonal,148,11.099,6.8469999999999995,17.037506900159425
mp-ogq,CsSbF6,Trigonal,148,11.184,4.926,12.886102604085451
mp-onr,RbAsF6,Trigonal,148,15.18,6.896,17.967265237623007
mp-orv,MgRhF6,Trigonal,148,22.148,21.445,48.63719851175914
mp-cgpmi,Sr5(SiN3)2,Monoclinic,15,81.348,38.641,100.07716225480658
mp-pkr,KSbO2,Monoclinic,15,23.533,16.167,39.463869476523065
mp-ssl,TbNbO4,Monoclinic,15,134.127,53.917,142.63820821261544
mp-tas,LuTaO4,Monoclinic,15,161.12,73.874,192.24097940900947
mp-wjh,Na2Si3O7,Monoclinic,15,101.485,67.825,166.40426862845172
mp-wos,Li3AlF6,Monoclinic,15,47.682,29.604,73.58355836663772
mp-zxu,Sr2TaN3,Monoclinic,15,69.088,38.896,98.25000662983426
mp-baev,Sr2NbN3,Monoclinic,15,70.857,38.942,98.73771791517734
mp-bame,Ca2VN3,Monoclinic,15,93.415,50.422,128.20009305434166
mp-fecms,PdSeO4,Monoclinic,15,23.43,10.796,28.075777816145823
mp-fwilm,PdSO4,Monoclinic,15,27.378,13.766,35.36986373305526
mp-fwmcv,Tl2CS3,Monoclinic,15,7.347,3.907,9.956164675504857
mp-bour,Cd2As3I,Monoclinic,15,36.257,18.64,47.739004638532
mp-bqqc,Na2CS3,Monoclinic,15,16.312,7.334,19.134349955571352
mp-eit,Li2TiO3,Monoclinic,15,110.301,71.679,176.75004945824705
mp-eiv,Pr2(ReB2)3,Monoclinic,15,212.95,119.223,301.4179909454631
mp-brmq,Cu2PbO2,Monoclinic,15,49.45,17.547,47.073137850594044
mp-bsvw,Ca2SiIr2,Monoclinic,15,96.593,40.151,105.79441059315614
mp-eqy,HoNbO4,Monoclinic,15,141.033,58.084,153.21789620165302
mp-fjy,Cu2P2O7,Monoclinic,15,80.272,40.718,104.48698084067999
mp-ccnw,Li2TiO3,Monoclinic,15,122.947,87.311,211.79700988486297
mp-foh,AlTlF4,Monoclinic,15,45.26,23.515,60.13120374148591
mp-frf,KFeS2,Monoclinic,15,16.879,9.027,22.983718775140787
mp-fub,NdNbO4,Monoclinic,15,106.12,38.657,103.41392023349027
mp-gdw,Li2ZrO3,Monoclinic,15,100.625,55.316,140.24864148312807
mp-gkf,MgSiO3,Monoclinic,15,101.455,71.846,174.37614362684772
mp-hdj,MgGeO3,Monoclinic,15,111.428,65.203,163.6823199653556
mp-hff,CaAl4O7,Monoclinic,15,113.819,47.283,124.59570405155118
mp-hlu,CsGaS2,Monoclinic,15,12.848,6.173,15.962527360958918
mp-hyo,ErNbO4,Monoclinic,15,142.997,57.979,153.22793512331359
mp-hyq,RbFeS2,Monoclinic,15,19.246,8.026,21.13946177239827
mp-hzf,YNbO4,Monoclinic,15,133.321,55.399,145.97759740821587
mp-iag,NaSbS2,Monoclinic,15,23.333,14.886,36.826475136949995
mp-bevqd,Na2(ReS2)3,Monoclinic,15,36.443,20.662,52.13335841712118
mp-bexaf,Zn3(BO3)2,Monoclinic,15,90.488,30.787,82.95319619786206
mp-idr,ErTaO4,Monoclinic,15,154.87,73.121,189.53388112271747
mp-bfplo,YbTaO4,Monoclinic,15,94.996,40.993,107.5140552731601
mp-bfwpb,TbCl2F,Monoclinic,15,60.1,22.259,59.43894420884778
mp-bgqpu,Cs3BAs2,Monoclinic,15,12.943,5.717,14.949853611996586
mp-bmzpq,Li4Ti5O12,Monoclinic,15,108.701,60.558,153.22061553143453
mp-bnhur,H2SO4,Monoclinic,15,10.776,6.367,15.958059904380411
mp-kmo,RbFeSe2,Monoclinic,15,16.048,5.087,13.802588416524205
mp-bqzka,Li2HfO3,Monoclinic,15,106.444,66.947,166.0327333662974
mp-brsym,YAl3O6,Monoclinic,15,55.637,36.039,88.91804181818182
mp-ohs,K3BP2,Monoclinic,15,18.515,8.013,21.008311384876805
mp-oht,K3BAs2,Monoclinic,15,16.559,7.368,19.24902108861425
mp-oju,Rb3BAs2,Monoclinic,15,15.057,6.582,17.23468332270593
mp-oop,Sr3(AlP2)2,Monoclinic,15,51.236,29.669,74.606346248439
mp-oqe,KFeSe2,Monoclinic,15,19.144,7.483,19.861218023569283
mp-cejdw,Na2ZrO3,Monoclinic,15,80.895,50.952,126.33237078433575
mp-cesur,LiAuO2,Monoclinic,15,56.84,17.227,46.93893441706126
mp-cetai,RbAgO2,Monoclinic,15,23.26,10.684,27.796139391529127
mp-fypsm,CaCO3,Trigonal,150,75.372,30.213,79.95555759980337
mp-hdt,Na2ThF6,Trigonal,150,51.138,26.423,67.62220436283968
mp-bcsxo,In2TeO6,Trigonal,150,141.455,60.251,158.28046710178782
mp-bqwkc,LiAg2F6,Trigonal,150,50.447,17.197,46.32684338843465
mp-sjb,LiBF4,Trigonal,152,14.836,7.539,19.340931004668857
mp-ggy,BaZnO2,Trigonal,152,82.555,33.339,88.15073915317932
mp-brajq,BaMgO2,Trigonal,152,79.228,40.188,103.12710088098119
mp-fwd,AlPO4,Trigonal,154,30.491,36.63,78.46785766141308
mp-cfsjk,ZrZnN2,Trigonal,156,177.173,80.045,208.70475545486656
mp-cfsjr,HfZnN2,Trigonal,156,188.438,85.889,223.6825727737741
mp-bgxx,Zn(InS2)2,Trigonal,156,32.235,16.944,43.25342554707917
mp-bhzh,BiTeI,Trigonal,156,5.729,4.804,11.263655313537358
mp-bqzp,Nb3SBr7,Trigonal,156,12.982,7.903,19.709507438792716
mp-bxxb,BiTeBr,Trigonal,156,6.627,4.678,11.360802719980455
mp-cbor,TmCuSe2,Trigonal,156,65.942,29.485,76.98131119919405
mp-bghvd,Nb3TeI7,Trigonal,156,11.976,8.516,20.65269876698767
mp-bkhfq,Zn3(InS3)2,Trigonal,156,53.459,22.686,59.62394293767719
mp-bmkum,ErCuSe2,Trigonal,156,65.035,28.853,75.40741431429107
mp-bmlaz,DyCuSe2,Trigonal,156,64.673,28.215,73.8984055320068
mp-bmlwg,YCuSe2,Trigonal,156,61.605,27.881,72.67875768702748
mp-kim,ScCuS2,Trigonal,156,79.868,37.063,96.2938447881388
mp-bqytc,LiCuO2,Trigonal,156,109.67,25.035,69.79422403931703
mp-lrh,AlAgS2,Trigonal,156,75.663,35.872,92.9299067720202
mp-boqg,AlPS4,Orthorhombic,16,6.855,4.068,10.188578735842162
mp-cfxyq,NiAgSe2,Trigonal,160,77.26,19.075,52.87361423930159
mp-cfyaq,KTiS2,Trigonal,160,51.499,33.145,81.87084551965978
mp-wnq,CrWN2,Trigonal,160,295.098,142.003,367.12188553650986
mp-ydq,RbTiS2,Trigonal,160,51.784,31.835,79.26241010326572
mp-bhza,KBrO3,Trigonal,160,19.057,10.994,27.662494271253575
mp-gdlwt,H3ClO,Trigonal,160,8.222,4.34,11.071892711852719
mp-bqsm,RbBrO3,Trigonal,160,16.727,9.591,24.156091698454127
mp-brwd,CuAsSe2,Trigonal,160,42.788,9.879,27.519106703413556
mp-bsmm,CIN,Trigonal,160,5.029,3.178,7.875141418012591
mp-epn,Ga3PO7,Trigonal,160,149.786,60.464,159.87922517270735
mp-ffw,CrAgSe2,Trigonal,160,62.714,22.96,61.38843289026157
mp-gew,CrAgS2,Trigonal,160,77.616,26.272,70.8248995368941
mp-gtj,BaCO3,Trigonal,160,46.663,21.432,55.759366773839844
mp-bevrt,Zn(InS2)2,Trigonal,160,32.329,17.426,44.31564932306643
mp-bfxkm,CrAgS2,Trigonal,160,26.548,16.293,40.57786960192627
mp-bgjct,CrCuSe2,Trigonal,160,79.768,30.456,81.05252028469751
mp-kxr,KNbO3,Trigonal,160,103.322,30.726,83.86473984713466
mp-bqyqs,NaTiS2,Trigonal,160,52.215,30.741,77.09365606288623
mp-brbzg,LiCoS2,Trigonal,160,69.93,19.302,53.02716698968101
mp-lqj,CrCuSe2,Trigonal,160,68.209,21.226,57.693447091692384
mp-tsw,ZnSnO3,Trigonal,161,164.367,62.67,166.80956546851132
mp-bjcy,LiMgH3,Trigonal,161,40.623,28.674,69.63734692413462
mp-fla,LiTaO3,Trigonal,161,121.383,72.113,180.5787130462887
mp-fnn,LiNbO3,Trigonal,161,103.121,49.129,127.18856900851343
mp-gol,Ag3AsS3,Trigonal,161,22.91,6.11,16.833523516835918
mp-grq,NaNbO3,Trigonal,161,100.75,37.235,99.45310175707321
mp-bfklq,AlBiO3,Trigonal,161,126.197,63.244,162.57387398463229
mp-bfkvx,AgNO3,Trigonal,161,32.285,7.759,21.55059394536104
mp-imk,Ba(BO2)2,Trigonal,161,47.902,18.109,48.247170299416
mp-bqxkj,ScBiO3,Trigonal,161,96.558,39.586,104.48006102168499
mp-bqzsi,GaBiO3,Trigonal,161,103.348,36.043,96.86797734673651
mp-brsok,LaBiO3,Trigonal,161,57.541,15.033,41.48614846847423
mp-cehuq,LaWN3,Trigonal,161,167.515,55.095,148.95479220464813
mp-cehwq,YWN3,Trigonal,161,163.844,35.462,99.2271702372323
mp-cestw,TiReN3,Trigonal,161,269.191,103.364,274.90586804136836
mp-bgze,Ag5(PbO3)2,Trigonal,162,89.855,19.145,53.62635785043816
mp-bueu,AlSiTe3,Trigonal,162,14.548,8.574,21.498543950361945
mp-fxy,Li2ZrF6,Trigonal,162,58.042,35.314,88.07895670359053
mp-kfz,As2PdO6,Trigonal,162,140.541,74.07,189.00578953102018
mp-bqxmn,Hg(SbO3)2,Trigonal,162,101.62,30.952,84.29740497659405
mp-nfe,Cd(SbO3)2,Trigonal,162,107.992,47.314,123.8541339438175
mp-nmz,Ca(SbO3)2,Trigonal,162,98.203,50.345,128.99189548461533
mp-nnb,Ba(SbO3)2,Trigonal,162,87.909,41.371,107.28339468301989
mp-brnl,Na3ScBr6,Trigonal,163,14.933,6.566,17.180000038937017
mp-ova,Al(CoSi)2,Trigonal,164,187.321,97.117,248.41973965679435
mp-cfgjy,Eu(MgBi)2,Trigonal,164,32.63,22.291,54.46949160016974
mp-cfxgn,Ca(BH)2,Trigonal,164,106.786,86.769,204.82903346130323
mp-cfyxc,Ca2H3Br,Trigonal,164,41.258,25.652,63.74494361088433
mp-cfzbg,Li3HoSb2,Trigonal,164,44.465,33.579,80.47847039059974
mp-cfzbm,Li3PrBi2,Trigonal,164,37.325,27.09,65.43852335238917
mp-cfzbw,Li3SmBi2,Trigonal,164,38.262,28.031,67.58788588193282
mp-pbx,LiTiTe2,Trigonal,164,35.309,27.015,64.57593322651982
mp-cgoow,Ca(ZnN)2,Trigonal,164,122.599,79.606,196.32533520338487
mp-cgoqv,Na2HfN2,Trigonal,164,33.135,21.646,53.32596913697532
mp-cgorc,Na2ZrN2,Trigonal,164,39.38,24.691,61.26810160259327
mp-cgorq,Hf2SeN2,Trigonal,164,159.176,81.861,209.64437774786416
mp-cgorx,Zr2SeN2,Trigonal,164,148.143,74.511,191.43744490114466
mp-cgott,Li2SnN2,Trigonal,164,112.952,85.985,205.74661927638812
mp-pgs,Yb(ZnAs)2,Trigonal,164,59.843,37.689,93.4490025826589
mp-pkc,TiTl2F6,Trigonal,164,25.672,7.213,19.785931496278007
mp-pkf,Yb(AlSi)2,Trigonal,164,62.946,43.955,106.9668025670875
mp-chgfy,CaTiS2,Trigonal,164,81.581,53.96,132.63675570717402
mp-plj,Y(AlSi)2,Trigonal,164,77.086,41.59,105.75140979593036
mp-por,Y(AlGe)2,Trigonal,164,70.326,38.044,96.69563771875576
mp-ppu,SrMg2N2,Trigonal,164,93.805,71.102,170.2825905984676
mp-qdy,Rb2PdC2,Trigonal,164,30.432,13.747,35.84378146092553
mp-qdz,Rb2PtC2,Trigonal,164,36.208,17.029,44.16348426221419
mp-qgy,Yb(MgSb)2,Trigonal,164,40.911,27.929,68.25496721801117
mp-rey,ZnNi3Sb2,Trigonal,164,93.503,16.841,47.66153087943501
mp-rne,CuNiSb2,Trigonal,164,81.671,38.407,99.6070950285795
mp-rqj,Mg(BeN)2,Trigonal,164,184.695,166.544,384.16244242182864
mp-sth,Dy2SO2,Trigonal,164,120.352,65.3,165.8962707221195
mp-tcm,ScAgSe2,Trigonal,164,61.141,20.845,56.15347144437699
mp-tef,TmAgTe2,Trigonal,164,47.341,18.114,48.19506963412578
mp-uqk,Rb2ZrF6,Trigonal,164,19.966,10.778,27.40310617465618
mp-uql,Rb2HfF6,Trigonal,164,21.791,11.185,28.652668760939417
mp-uqm,Cs2HfF6,Trigonal,164,19.374,9.084,23.568442460494595
mp-vwx,Ge2Te5As2,Trigonal,164,25.98,21.48,50.51753771876886
mp-djsgw,Mg(ReO4)2,Trigonal,164,16.491,11.846,28.67253989791092
mp-xjs,Ti3PO2,Trigonal,164,181.87,66.326,177.41134134942214
mp-xqw,Hf(CuP)2,Trigonal,164,128.834,67.701,172.8295843620584
mp-bdgo,Eu(CdSb)2,Trigonal,164,38.252,18.867,48.609179228126905
mp-bdue,Eu(MnAs)2,Trigonal,164,63.082,33.49,85.36359465914806
mp-bdvb,Eu(AlGe)2,Trigonal,164,55.443,38.376,93.544979907672
mp-bemd,Eu(AlSi)2,Trigonal,164,61.992,42.25,103.2855941040898
mp-bett,Ga2FeS4,Trigonal,164,16.854,12.987,30.998852570457437
mp-bhlp,Eu(CdP)2,Trigonal,164,52.436,35.029,85.94823562809029
mp-bhps,LiCu2P,Trigonal,164,77.333,32.433,85.3651248752042
mp-fdwlt,Zn(InS2)2,Trigonal,164,12.842,8.873,21.635975315934935
mp-fepjt,LiNiS2,Trigonal,164,71.293,34.235,88.53366877725561
mp-bjbx,Mg(AlH4)2,Trigonal,164,17.913,7.326,19.34128784082535
mp-bjil,Ca(HO)2,Trigonal,164,35.543,21.012,52.659142783274966
mp-botk,Cs3Bi2Br9,Trigonal,164,8.611,4.661,11.845702072538861
mp-bqdk,Sc2NCl2,Trigonal,164,28.825,17.814,44.313369099329755
mp-bqva,Nb3TeCl7,Trigonal,164,12.425,8.64,21.04253511924208
mp-brab,Na(CuS)4,Trigonal,164,58.012,22.313,59.3320862545773
mp-brfk,Ca(MgBi)2,Trigonal,164,34.698,22.208,54.90933362892115
mp-brfl,Ba(MgBi)2,Trigonal,164,31.668,21.056,51.70784656212305
mp-brvb,Ca(MnBi)2,Trigonal,164,31.174,13.621,35.668120978505364
mp-brvk,Mg2Al2Se5,Trigonal,164,16.399,10.996,26.961783529646304
mp-brwb,GeSb4Te7,Trigonal,164,18.188,14.027,33.475349302386604
mp-brwt,FeAgTe2,Trigonal,164,49.299,13.74,37.716081961432096
mp-eke,Sr(MnSb)2,Trigonal,164,30.716,17.37,43.845142168410675
mp-elq,P2Pd3S8,Trigonal,164,5.487999999999999,5.003,11.511071691433363
mp-bste,Mg4H2O5,Trigonal,164,88.485,69.588,165.40398581674592
mp-bstg,Mg2H2O3,Trigonal,164,62.075,34.799,87.96027275318518
mp-bsth,Mg3H4O5,Trigonal,164,54.791,34.467,85.4774319704285
mp-bstj,Mg(HO)2,Trigonal,164,51.731,40.488,96.33210455792845
mp-eng,U2SeN2,Trigonal,164,126.252,70.395,178.08618005971266
mp-etn,Nd2SO2,Trigonal,164,107.491,55.72,142.53195241583003
mp-ets,Li2ZrN2,Trigonal,164,132.436,113.262,264.4097696456901
mp-eum,Pr2SO2,Trigonal,164,104.958,54.191,138.70188395540077
mp-ffy,Ge2Sb2Te5,Trigonal,164,22.025,15.452,37.57004060004662
mp-fgu,Tm2SO2,Trigonal,164,127.607,70.856,179.36878953087765
mp-fqz,K2PtF6,Trigonal,164,24.229,10.53,27.592707379501782
mp-frl,Mg(AlSi)2,Trigonal,164,62.188,32.953,84.0186886482596
mp-fso,Ca(AlGe)2,Trigonal,164,59.086,37.748,93.36206874226765
mp-fws,K2TiF6,Trigonal,164,27.845,12.002,31.482684300323438
mp-gdq,Ca(MnSb)2,Trigonal,164,43.915,19.476,50.90296228698395
mp-ggo,LiCrS2,Trigonal,164,64.206,40.013,99.39205050917548
mp-glb,Sr(MnAs)2,Trigonal,164,52.687,31.048,77.85157651936186
mp-gly,Na2PtC2,Trigonal,164,54.301,25.524,66.19968749701475
mp-gwk,TlCrTe2,Trigonal,164,34.601,20.607,51.58110491921871
mp-hcv,Gd2SO2,Trigonal,164,112.425,60.067,152.95964754543942
mp-hdn,Na2PdC2,Trigonal,164,47.04,22.117,57.36109533990456
mp-hea,Yb(MnSb)2,Trigonal,164,43.87,18.882,49.538713419982464
mp-bcugu,Cs2PdC2,Trigonal,164,27.319,12.019,31.445513205499275
mp-bcugv,Cs2PtC2,Trigonal,164,32.694,14.59,38.102182796080655
mp-hyz,U2PN2,Trigonal,164,153.594,86.061,217.55070304639543
mp-beuig,Cs3Sb2I9,Trigonal,164,8.137,4.516,11.432925225567809
mp-beval,TlPt2Se3,Trigonal,164,22.482,14.331,35.45869716423933
mp-idm,Ca(MnAs)2,Trigonal,164,63.206,34.526,87.62337249268329
mp-bfmmx,CsCu3O2,Trigonal,164,6.316,7.237,15.710522360129845
mp-bfnix,Zr2SN2,Trigonal,164,157.723,75.141,194.53078639273406
mp-igz,Sr(MnP)2,Trigonal,164,77.447,47.371,118.04526274525229
mp-bgmow,Bi2Pb2Se5,Trigonal,164,17.34,11.654,28.563043628482585
mp-bgnmw,PrAlSi2,Trigonal,164,77.718,40.872,104.32736624991787
mp-imt,U2SN2,Trigonal,164,133.28,79.861,199.6970336105199
mp-imz,Nb2CS2,Trigonal,164,40.643,26.257,64.81360762150271
mp-iox,CaMg2N2,Trigonal,164,101.805,73.927,178.55983285531264
mp-bhdhj,Eu(MnSb)2,Trigonal,164,42.357,20.122,52.113673788835065
mp-bheay,Eu(MgSb)2,Trigonal,164,35.981,26.016,62.890401272030985
mp-bjphf,Zn(HO)2,Trigonal,164,54.605,29.387,74.75126662767465
mp-bkpta,Ba2MgH6,Trigonal,164,38.587,30.856,73.08677880464066
mp-bkqzx,Sr2MgH6,Trigonal,164,44.442,36.437,85.84908599635963
mp-bkrab,Sr(AlH)2,Trigonal,164,42.514,36.787,85.65537830815012
mp-bkrby,Y2H2C,Trigonal,164,95.473,66.735,162.3725510542143
mp-kgp,Sr(AlSi)2,Trigonal,164,58.659,38.924,95.62164086719001
mp-khl,Ca(MnP)2,Trigonal,164,87.284,49.979,125.90570957986857
mp-kks,TlPd2Se3,Trigonal,164,22.474,12.159,30.90376212915143
mp-klv,Ca(CdAs)2,Trigonal,164,49.416,29.511,73.83502485950078
mp-knx,Dy(AlSi)2,Trigonal,164,78.53,43.513,110.1875759486641
mp-kur,Cs2SnF6,Trigonal,164,18.663,8.75,22.702099970651386
mp-kzt,Ca(ZnSb)2,Trigonal,164,43.544,14.186,38.38912742891076
mp-kzu,Ca(CdSb)2,Trigonal,164,39.354,20.206,51.75949833656377
mp-kzv,Sr(ZnSb)2,Trigonal,164,42.07,12.806,34.87897637681993
mp-kzw,Sr(CdSb)2,Trigonal,164,37.561,17.071,44.47519520785487
mp-bqvvn,NaTiS2,Trigonal,164,53.161,36.796,89.69380017220385
mp-bqxgy,Tm2SeO2,Trigonal,164,119.03,67.155,169.57450730120567
mp-bqxhy,LiCoS2,Trigonal,164,76.01,47.947,118.85071303043371
mp-bqxyl,NaTi2O3,Trigonal,164,141.836,81.135,204.4255516014235
mp-bqzsk,Li(NiS)2,Trigonal,164,72.246,20.112,55.21259855604812
mp-lki,Ca(AlSi)2,Trigonal,164,60.78,42.058,102.52572286740524
mp-lmw,Sr(ZnAs)2,Trigonal,164,53.997,33.006,82.25780313543287
mp-lmx,Sr(CdAs)2,Trigonal,164,46.795,28.778,71.64686479903999
mp-lnd,Li2PrP2,Trigonal,164,49.171,23.079,59.8700852384637
mp-lnf,Li2NdAs2,Trigonal,164,44.285,19.862,51.836390382210226
mp-lnm,CsCu3S2,Trigonal,164,10.16,7.343,17.752265023927237
mp-loy,K2ReF6,Trigonal,164,26.136,10.888,28.681227736964697
mp-lrz,Cs2ZrF6,Trigonal,164,18.985,9.167,23.688325443876472
mp-ltt,Rb2GeF6,Trigonal,164,20.664,9.303,24.267265979381445
mp-lux,K2PdF6,Trigonal,164,23.767,9.335,24.762940932089887
mp-mau,Li(TiSe2)3,Trigonal,164,23.112,17.774,42.44213284353117
mp-mbm,Ba(CdSb)2,Trigonal,164,35.993,16.34,42.57700415865635
mp-mcr,Li2CeN2,Trigonal,164,110.495,65.413,163.89673143981574
mp-mdb,Cs2PtF6,Trigonal,164,17.328,7.681,20.0765492667393
mp-med,Zr(CuP)2,Trigonal,164,127.405,64.32,165.1655668648594
mp-mgi,Sr(ZnP)2,Trigonal,164,63.496,43.654,106.54512840925594
mp-mgj,Sr(CdP)2,Trigonal,164,53.94,34.745,85.8103309337878
mp-mgk,Ba(MgP)2,Trigonal,164,51.07,38.104,91.5444845646424
mp-mgl,Ba(CdP)2,Trigonal,164,50.707,32.604,80.54816214372715
mp-mgm,Ba(MgAs)2,Trigonal,164,45.089,33.213,79.99684599358976
mp-mgn,Ba(CdAs)2,Trigonal,164,44.501,26.805,66.9688583539187
mp-mlj,Li3LaP2,Trigonal,164,56.817,45.426,107.60164991175532
mp-mrz,Ba(AgS)2,Trigonal,164,50.57,20.189,53.45359525069954
mp-bxdai,Sr(MgAs)2,Trigonal,164,47.545,35.48,85.23745557645343
mp-bxfwj,Mg(BeAs)2,Trigonal,164,76.107,45.528,113.87660887569426
mp-nhy,Rb2NbF6,Trigonal,164,21.645,9.05,23.82895519362033
mp-nhz,Cs2NbF6,Trigonal,164,22.614,9.447,24.87689220975818
mp-nik,Ho2CF2,Trigonal,164,105.953,65.305,162.52400012788257
mp-nrv,TlTe3Pt2,Trigonal,164,23.076,15.407,37.80690480297749
mp-nsb,Yb(CdSb)2,Trigonal,164,40.555,21.583,54.9933477954317
mp-nsq,TlPt2S3,Trigonal,164,27.301,15.986,40.12610276946337
mp-nwz,RbAu3Se2,Trigonal,164,9.541,3.555,9.48673923177326
mp-nxa,CsAu3Se2,Trigonal,164,7.606,2.961,7.862690329337833
mp-nxo,CeAlSi2,Trigonal,164,82.941,44.343,112.90761843801806
mp-oby,Mg(AlC)2,Trigonal,164,132.844,91.296,222.83971601460107
mp-odw,Ca(MgAs)2,Trigonal,164,50.032,36.09,87.28311430504979
mp-odx,Ca(MgSb)2,Trigonal,164,39.782,26.42,64.89417257796742
mp-ody,Sr(MgSb)2,Trigonal,164,37.968,26.095,63.693130950935355
mp-odz,Ba(MgSb)2,Trigonal,164,36.216,24.844,60.660958978815216
mp-oeb,Ca(ZnP)2,Trigonal,164,66.211,45.563,111.18505682730269
mp-oec,Ca(CdP)2,Trigonal,164,57.023,34.608,86.35417599439897
mp-oed,Ca(ZnAs)2,Trigonal,164,57.237,35.241,87.71986766496579
mp-oeo,Yb(ZnP)2,Trigonal,164,70.369,49.154,119.6116991558474
mp-oey,Yb(MnAs)2,Trigonal,164,64.678,35.334,89.67245678560218
mp-ofv,LiTiS2,Trigonal,164,65.258,48.553,116.71344168266299
mp-org,Li2CeP2,Trigonal,164,57.891,35.063,87.51959028150392
mp-zwj,Mg4Ta2O9,Trigonal,165,148.83,76.439,195.79665180167862
mp-cezyd,LiSnS2,Trigonal,166,47.326,26.474,66.9399990264289
mp-cezye,LiTiS2,Trigonal,166,60.842,39.777,97.9789301358956
mp-cezyg,LiScS2,Trigonal,166,55.65,32.783,82.20657352565674
mp-cfiqh,HoTlTe2,Trigonal,166,29.727,17.83,44.5775825849679
mp-cfizr,ErTlTe2,Trigonal,166,29.857,17.841,44.63289607306446
mp-cfizs,DyTlTe2,Trigonal,166,29.759,17.633,44.174202815452254
mp-cfjyv,TmTlTe2,Trigonal,166,30.528,18.038,45.20968944190035
mp-cfxey,LuTlTe2,Trigonal,166,30.603,18.299,45.77359204599121
mp-cfxfe,MgSiN2,Trigonal,166,222.992,171.341,409.2134878242378
mp-cfxyv,LuAgO2,Trigonal,166,115.236,32.479,89.06903303392238
mp-cfxzb,KInO2,Trigonal,166,86.691,43.643,112.11492913445456
mp-cfxzd,AgRhO2,Trigonal,166,141.419,37.018,102.14175248604411
mp-cfxzv,KTiS2,Trigonal,166,51.441,33.931,83.44577612693487