material_id,formula_pretty,symmetry.crystal_system,symmetry.number,bulk_modulus.vrh,shear_modulus.vrh,youngs_modulus_vrh
mp-cdtuy,YbSmPd2,Cubic,225,71.092,20.256,55.49713087713889
mp-cdtzr,BaSrYb2,Cubic,225,11.948,6.437,16.37102916203496
mp-cdtzz,YbDyHg2,Cubic,225,52.438,26.151,67.27035261221485
mp-cduag,TmScRu2,Cubic,225,132.156,53.361,141.09314171385125
mp-cduhk,TmScHg2,Cubic,225,72.216,28.405,75.33741402880193
mp-cduru,YTmAl2,Cubic,225,66.272,35.136,89.57733606893723
mp-cdusb,TmLuCo2,Cubic,225,209.285,47.005,131.19309608659574
mp-cduvd,VFeRu2,Cubic,225,232.744,108.03,280.66560110733235
mp-cdvco,YTmMg2,Cubic,225,42.606,21.693,55.636492445371914
mp-cdvct,SrCaHg2,Cubic,225,31.022,16.275,41.55758087085356
mp-cdvnu,Yb2InSn,Cubic,225,35.777,16.544,43.00344857315843
mp-cdvqt,SrTlHg2,Cubic,225,29.409,5.404,15.276309384712327
mp-cdvqu,ZrCu2Hg,Cubic,225,122.147,47.151,125.3268408794174
mp-cdvsv,V2ReRu,Cubic,225,268.222,126.088,327.0210816434847
mp-cdvtx,Lu2HgAu,Cubic,225,82.566,32.929,87.19525322224875
mp-cdvub,YbPrMg2,Cubic,225,30.717,18.446,46.108411964158165
mp-cdvze,YbPrPd2,Cubic,225,64.73,12.754,35.9039053077161
mp-cdvzw,YErTl2,Cubic,225,53.212,14.644,40.24058269451457
mp-cdwor,NaPd2Pb,Cubic,225,72.915,14.516,40.83797660131784
mp-cdwrp,Pr2CdSn,Cubic,225,54.037,19.655,52.58890614856465
mp-cdwrq,Pr2CdAg,Cubic,225,50.574,17.421,46.880136251574115
mp-cdwrv,LaDyMg2,Cubic,225,38.201,22.827,57.106367190569756
mp-cdwrx,PrYTl2,Cubic,225,51.765,17.376,46.88232395712076
mp-cdxgd,Pm2ZnHg,Cubic,225,56.196,20.8,55.546767482628255
mp-cdxge,HoTmMg2,Cubic,225,42.853,20.63,53.33179061458955
mp-cdxgj,Pm2ZnAg,Cubic,225,56.992,21.588,57.50342568704431
mp-cdxov,Pm2InHg,Cubic,225,55.365,19.899,53.31017782831705
mp-cdxqw,LiAl2Tc,Cubic,225,115.85,61.853,157.52456735783568
mp-cdxqx,LiAl2Os,Cubic,225,136.0,67.515,173.78707296299802
mp-cdxtc,HoTmTl2,Cubic,225,53.76,14.109,38.9220450541368
mp-cdxtd,Nb2RuW,Cubic,225,237.553,106.444,277.8341964173004
mp-cdxtr,TmHfCo2,Cubic,225,111.695,58.693,149.83425106278156
mp-cdxuy,Pm2PtAu,Cubic,225,87.278,24.629,67.5344765571819
mp-cdxyr,PmYAl2,Cubic,225,60.622,35.164,88.39979759480256
mp-cdycs,LiBeAu2,Cubic,225,105.456,34.74,93.9080652107044
mp-cdygd,PmSmHg2,Cubic,225,58.175,17.81,48.48244339303818
mp-cdyil,HfMgAu2,Cubic,225,121.119,33.178,91.20601116673181
mp-cdyio,HoTmZn2,Cubic,225,63.012,32.116,82.35620988279554
mp-cdyjq,Pm2ZnPt,Cubic,225,75.923,25.95,69.88761838884751
mp-cdymn,Pm2ZnRh,Cubic,225,74.896,24.411,66.05637238206496
mp-cdymu,Pm2ZnOs,Cubic,225,87.655,28.611,77.41060596551155
mp-cdyrm,HfAlFe2,Cubic,225,172.287,92.953,236.35295614564444
mp-cdyub,Li2PmGe,Cubic,225,50.35,26.433,67.48879582833285
mp-cdyud,PmDyHg2,Cubic,225,60.869,17.988,49.12487423913856
mp-cdyue,PmDyIn2,Cubic,225,55.936,21.872,58.049819316743985
mp-cdyzb,Er2PdAu,Cubic,225,94.432,33.306,89.40679379157427
mp-cdyzc,Er2MgTl,Cubic,225,51.119,19.866,52.763030809996366
mp-cdzad,Er2ZnCu,Cubic,225,68.856,33.579,86.65126200202376
mp-cdzag,Ac2SiHg,Cubic,225,49.655,16.682,45.005960808224714
mp-cdzah,Ac2NiGe,Cubic,225,54.432,13.482,37.36137990021383
mp-cdzmq,Er2ZnAu,Cubic,225,77.836,35.198,91.76216292900048
mp-cdzue,Dy2IrAu,Cubic,225,108.554,34.691,94.05394523148134
mp-ceads,Al2CoOs,Cubic,225,203.003,111.008,281.68031201485513
mp-cealc,Dy2ZnIr,Cubic,225,95.673,36.14,96.29501260989174
mp-cealj,AcTlHg2,Cubic,225,44.138,7.739,21.934998451692078
mp-ceaoh,Dy2ZnHg,Cubic,225,63.653,27.597,72.33700547685719
mp-ceare,CeDyZn2,Cubic,225,51.683,30.59,76.64793890292448
mp-cearx,BeGaCo2,Cubic,225,189.356,99.193,253.34180683720464
mp-ceatr,DyHoIn2,Cubic,225,57.572,21.948,58.42021279743558
mp-ceaup,CaTmCd2,Cubic,225,45.017,24.297,61.77675553505535
mp-cebty,CaAcIn2,Cubic,225,37.832,17.546,45.58998220417881
mp-cevtt,TiInFe2,Cubic,225,246.765,130.828,333.53951483315217
mp-cevty,TiFe2Sb,Cubic,225,187.429,27.731,79.28290728587942
mp-cewez,Sc2MnC,Cubic,225,113.031,46.178,121.9295240544967
mp-cewfa,Sc2MnGe,Cubic,225,81.341,32.765,86.65925106941053
mp-cewoq,MnSiNi2,Cubic,225,170.737,22.904,65.77098797828504
mp-ceyum,Sc2ZnS4,Cubic,227,73.999,32.261,84.50288939187756
mp-ceyut,Mg(ScSe2)2,Cubic,227,57.484,20.211,54.2723933292848
mp-cgoqf,CsVN2,Cubic,227,105.401,43.204,114.03145524711537
mp-qfh,Sc2CdS4,Cubic,227,69.767,24.821,66.56862816394872
mp-sob,La2Hf2O7,Cubic,227,160.548,89.983,227.45481958689848
mp-ukv,Tl2Pt2O7,Cubic,227,170.426,83.891,216.1988747633025
mp-uvd,CsAlO2,Cubic,227,92.213,47.586,121.80562992366409
mp-uve,RbAlO2,Cubic,227,91.475,43.214,112.00452667965837
mp-uwn,AlTlO2,Cubic,227,96.438,34.159,91.65534921925477
mp-vku,LiRhO2,Cubic,227,124.841,39.318,106.74748500511068
mp-xjv,Y2MgSe4,Cubic,227,51.637,18.906,50.54880764252057
mp-ybr,Dy2CdS4,Cubic,227,62.141,22.866,61.10328280033829
mp-ycr,KSbO3,Cubic,227,112.518,73.035,180.1309074768199
mp-bdgy,In2Si2O7,Cubic,227,230.416,91.928,243.4128962480975
mp-bgqe,Zn(InS2)2,Cubic,227,67.671,28.122,74.10126012070867
mp-bguo,Co3Mo3N,Cubic,227,298.478,118.524,314.0083299781648
mp-bhtb,Cr2CuS4,Cubic,227,94.549,39.715,104.51172931575138
mp-bhzd,Li2ZnCl4,Cubic,227,31.855,15.897,40.88918568660171
mp-bint,Bi2Pt2O7,Cubic,227,179.413,76.076,199.96453039889957
mp-birt,Bi2Ru2O7,Cubic,227,178.102,94.649,241.2169166029366
mp-bpad,Al2CuO4,Cubic,227,188.445,33.92,96.00001601989136
mp-eqs,Na8SnSb4,Cubic,227,18.677,8.832,22.888200915776327
mp-ezq,Y2Sn2O7,Cubic,227,164.271,91.448,231.40392679299148
mp-fga,MgAl2O4,Cubic,227,182.861,98.235,249.94689853250836
mp-cayj,Y2CdS4,Cubic,227,61.871,22.805,60.9290627249086
mp-fql,Al2CdSe4,Cubic,227,63.038,26.285,69.23237559134445
mp-gki,Tm2CdS4,Cubic,227,64.903,23.205,62.2019100883835
mp-gno,Sm2Zr2O7,Cubic,227,162.119,87.474,222.41875509339857
mp-guo,Mg(GaO2)2,Cubic,227,162.924,75.837,196.95223861468733
mp-gyr,Zn(CrSe2)2,Cubic,227,72.426,33.234,86.47510361180302
mp-hce,K(OsO3)2,Cubic,227,129.08,80.552,200.0437575674659
mp-heg,Al2ZnS4,Cubic,227,84.975,45.424,115.66257786774717
mp-bcsjn,SnPbO3,Cubic,227,106.995,46.81,122.55719504071563
mp-hpy,Zn(RhO2)2,Cubic,227,168.078,56.385,152.14201136600792
mp-hvy,Gd2Ti2O7,Cubic,227,183.909,95.771,244.81672460918801
mp-hyr,Y2Ti2O7,Cubic,227,186.139,98.422,251.02278324216437
mp-ifk,Ta2Cd2O7,Cubic,227,155.679,84.063,213.72091089275995
mp-bfubj,Y2Zr2O7,Cubic,227,161.026,86.846,220.83677115545237
mp-bfvfs,Cd(InS2)2,Cubic,227,63.647,22.102,59.42712948090291
mp-bfwkk,Cs(OsO3)2,Cubic,227,134.549,83.735,208.04655205772883
mp-ihm,Cr2HgSe4,Cubic,227,67.353,24.062,64.50453948991911
mp-bfyny,Y2Hf2O7,Cubic,227,169.817,95.728,241.756861992898
mp-iix,Mg2SiO4,Cubic,227,173.178,116.187,284.85654960902656
mp-iow,Zn(GaO2)2,Cubic,227,168.278,76.893,200.18772084843923
mp-isn,Er2Ti2O7,Cubic,227,193.302,102.343,260.9721073596297
mp-ivx,Nd2Zr2O7,Cubic,227,158.964,86.085,218.76514219941487
mp-bklft,CsNa2Ge17,Cubic,227,39.169,24.137,60.071724725367815
mp-bpdkj,Hf3Zn3N,Cubic,227,135.395,84.456,209.75475160045735
mp-bqvrt,Y2Pb2O7,Cubic,227,139.254,70.675,181.34577857533313
mp-bqygy,RbGaO2,Cubic,227,78.145,24.897,67.52033912128083
mp-bqylj,Nb2Pb2O7,Cubic,227,146.353,77.006,196.54603986319555
mp-bqypu,CsScO2,Cubic,227,62.741,14.836,41.2561338527226
mp-bqznu,La2Ce2O7,Cubic,227,133.226,60.716,158.12662272748994
mp-brauj,ZnIn2O4,Cubic,227,137.377,58.558,153.81855385190644
mp-bseen,AgAuO3,Cubic,227,123.896,56.909,148.05791262188023
mp-nhi,CsNbN2,Cubic,227,94.476,29.703,80.65629289977677
mp-bewng,Ca6Ag16N,Cubic,229,64.172,24.717,65.71402096366573
mp-bnrgo,Ca4(H4Rh)3,Cubic,229,75.603,40.914,103.98430571150033
mp-eni,Y3Al5O12,Cubic,230,170.395,103.015,257.21128024259195
mp-fae,Er3Al5O12,Cubic,230,173.762,105.755,263.7559629912557
mp-bgmlp,Zn(GaNi)3,Cubic,230,130.309,65.19,167.6183816652306
mp-crhte,TaB4W3,Orthorhombic,25,324.571,194.458,486.26343888180753
mp-crhtf,Ta3TiB4,Orthorhombic,25,266.336,207.503,494.17211642197657
mp-ekn,CuAgTe2,Orthorhombic,25,20.693,10.103,26.066781344379486
mp-bezk,TiCdO3,Orthorhombic,26,146.93,62.805,164.91714145295327
mp-bpxz,CaPPt,Orthorhombic,26,95.286,39.105,103.19769102944026
mp-gyb,NaNbO3,Orthorhombic,26,92.741,54.97,137.70323785313616
mp-bkrhj,LiHS,Orthorhombic,26,21.647,6.659,18.11908319832402
mp-cdrpg,Si3MoPt2,Orthorhombic,26,193.812,94.134,243.05207346685017
mp-beur,GePtSe,Orthorhombic,29,120.097,66.408,168.21837919470167
mp-bogc,Cd(NO3)2,Orthorhombic,29,24.793,12.29,31.64169114677682
mp-bomp,SeOF2,Orthorhombic,29,8.58,5.136,12.844990283715507
mp-gvz,CoAsS,Orthorhombic,29,135.022,105.649,251.38179513427252
mp-nso,SbIrS,Orthorhombic,29,142.102,87.554,217.9083535826879
mp-brizq,Hf3SnO8,Monoclinic,3,182.505,77.664,204.0481444194383
mp-uhx,Li3PO4,Orthorhombic,31,70.982,43.757,108.89484877854953
mp-bjfn,GaHO2,Orthorhombic,31,132.704,86.963,214.11749021903827
mp-bjfr,AlHO2,Orthorhombic,31,157.945,134.235,313.80552185603636
mp-fzajy,LiCuS,Orthorhombic,31,25.653,20.946,49.394307154895046
mp-eyr,Cu3AsS4,Orthorhombic,31,72.969,33.161,86.39543726692797
mp-bzxi,BH6N,Orthorhombic,31,8.054,4.31,10.97269808935094
mp-fvi,Cu3PS4,Orthorhombic,31,78.018,35.591,92.67981138904858
mp-hiw,CoSbS,Orthorhombic,31,113.942,77.053,188.63718719248277
mp-bdays,In5Se5Br,Orthorhombic,31,26.65,13.917,35.560872830707275
mp-bdayt,In5S5Br,Orthorhombic,31,30.845,16.474,41.953093506040794
mp-bfnlq,CoAsS,Orthorhombic,31,142.377,99.452,242.00761634158334
mp-ifc,SrB4O7,Orthorhombic,31,147.126,118.908,281.01741908953636
mp-ink,Cu3PSe4,Orthorhombic,31,62.703,27.883,72.850521042446
mp-bqzrj,HoHO2,Orthorhombic,31,107.968,59.121,149.9865156373605
mp-bsgaw,DyHO2,Orthorhombic,31,106.131,56.792,144.58607291869342
mp-ojn,Ba2Si5N8,Orthorhombic,31,159.326,99.809,247.70290540631757
mp-cfvdc,TiZnN2,Orthorhombic,33,154.329,55.654,149.04574743223154
mp-cgafm,BeGeN2,Orthorhombic,33,189.429,145.289,347.12146965284705
mp-cgowz,ZnSnN2,Orthorhombic,33,131.461,65.055,167.53023954265865
mp-cgpdh,CaSnN2,Orthorhombic,33,95.413,36.268,96.56828582325346
mp-cgpjj,MgSnN2,Orthorhombic,33,119.793,61.364,157.2427797206371
mp-cgpou,LiVN2,Orthorhombic,33,80.75,46.341,116.69914082559748
mp-rdm,LiGaSe2,Orthorhombic,33,34.67,17.624,45.21118042652548
mp-bebe,LiInSe2,Orthorhombic,33,29.929,13.618,35.47370144577148
mp-ekp,ZnGeN2,Orthorhombic,33,161.837,95.434,239.27010357607006
mp-fis,MnSiN2,Orthorhombic,33,184.321,91.55,235.6372764397305
mp-fku,LiB3O5,Orthorhombic,33,83.932,47.464,119.80797979014903
mp-fll,MgSiN2,Orthorhombic,33,173.274,105.134,262.3431064650951
mp-lny,MgGeN2,Orthorhombic,33,146.174,84.791,213.15762594470226
mp-lsj,BeSiN2,Orthorhombic,33,220.956,174.122,413.69634725385015
mp-bxcgw,PrBS3,Orthorhombic,33,52.732,22.607,59.34088989673844
mp-cgazb,LiGe2N3,Orthorhombic,36,122.768,86.576,210.29471797397113
mp-cgopa,VZn2N3,Orthorhombic,36,152.958,60.484,160.320251248657
mp-cgoqg,LiSn2N3,Orthorhombic,36,83.514,48.959,122.86722693413378
mp-cgoru,Zn2SbN3,Orthorhombic,36,129.688,64.008,164.8957020870855
mp-cgotc,Mg2VN3,Orthorhombic,36,128.676,54.099,142.34797300779093
mp-cgotm,Mg2SbN3,Orthorhombic,36,114.786,58.969,151.04205943564403
mp-cgoul,RbGe2N3,Orthorhombic,36,129.861,83.772,206.83935149729064
mp-cgoum,KGe2N3,Orthorhombic,36,135.298,78.625,197.59854051131123
mp-cgouq,Mg2NbN3,Orthorhombic,36,118.753,50.692,133.13259749699597
mp-cgove,NbZn2N3,Orthorhombic,36,138.984,52.641,140.21995791249017
mp-cgovy,Mg2TaN3,Orthorhombic,36,122.385,53.646,140.42074850107295
mp-cgowo,Zn2CrN3,Orthorhombic,36,154.566,59.218,157.53544449204082
mp-cgoyy,Mg2CrN3,Orthorhombic,36,124.288,51.678,136.16225809460548
mp-sdw,BaCuF4,Orthorhombic,36,53.979,15.813,43.218730481012656
mp-uaw,ZrGeTe4,Orthorhombic,36,13.848,10.867,25.841444429604476
mp-daeow,Ca3Sn2O7,Orthorhombic,36,128.105,63.424,163.31921874127565
mp-vjd,NaGe2N3,Orthorhombic,36,134.959,77.934,196.06233568414967
mp-voi,BaMgF4,Orthorhombic,36,59.463,29.668,76.31242667153712
mp-bdzd,AsPd3Pb2,Orthorhombic,36,87.148,28.112,76.1481067012944
mp-bfvt,Cs2PbO3,Orthorhombic,36,35.148,13.531,35.97636723681446
mp-bhrg,K2PbO3,Orthorhombic,36,39.098,17.293,45.213099526700205
mp-bpvc,RbH3O2,Orthorhombic,36,23.952,10.843,28.26399139046421
mp-evi,Ca3Ru2O7,Orthorhombic,36,148.022,60.41,159.52806710329133
mp-ewf,Al5BO9,Orthorhombic,36,159.267,78.213,201.63296039128508
mp-fth,BaZnF4,Orthorhombic,36,57.665,23.691,62.512195250297424
mp-fvh,Mg2PN3,Orthorhombic,36,149.391,87.587,219.80436324660297
mp-fxu,LaTaO4,Orthorhombic,36,122.275,67.187,170.35845512336064
mp-ged,Ca3Ti2O7,Orthorhombic,36,129.623,65.502,168.17774839063233
mp-gfb,Ge2N2O,Orthorhombic,36,84.757,60.474,146.5642134489825
mp-gsj,Na2SiO3,Orthorhombic,36,61.337,35.839,89.99004178758244
mp-hku,Li2SiO3,Orthorhombic,36,76.805,51.443,126.1618138743623
mp-bghzd,HfGeTe4,Orthorhombic,36,13.342,10.704,25.336386989946774
mp-bgjws,Yb2CdSb2,Orthorhombic,36,32.654,21.329,52.546248199780365
mp-iom,Na2GeO3,Orthorhombic,36,53.912,28.066,71.74765138407393
mp-ird,LiSi2N3,Orthorhombic,36,158.088,121.468,290.10309779565307
mp-bjoqo,AlHO2,Orthorhombic,36,106.355,79.123,190.2019648633309
mp-bjots,CsHO,Orthorhombic,36,24.052,9.372,24.883942890785985
mp-bjoug,ScHO2,Orthorhombic,36,82.391,49.224,123.1474382534236
mp-bjqyu,RbHO,Orthorhombic,36,26.262,13.038,33.56024137480397
mp-bjrfd,KHO,Orthorhombic,36,30.922,17.006,43.114234850417226
mp-bkpfd,SrMgH4,Orthorhombic,36,37.878,26.867,65.18824801246966
mp-bqxcg,Rb2SnO3,Orthorhombic,36,43.223,18.638,48.88718985617672
mp-bqxpu,La3GaO6,Orthorhombic,36,114.302,44.069,117.15116878868145
mp-bqylq,NaCuO2,Orthorhombic,36,59.984,20.992,56.39709148817581
mp-nhd,NaSi2N3,Orthorhombic,36,186.672,116.13,288.553025884942
mp-nrs,Cu2SiS3,Orthorhombic,36,78.911,36.107,93.9860551715291
mp-gcj,Li2Si2O5,Orthorhombic,37,78.037,49.052,121.66433579245876
mp-cfvwb,Mg6NbC,Orthorhombic,38,44.097,24.745,62.537395151430246
mp-cfwzx,Mg6SiB,Orthorhombic,38,46.07,21.502,55.821567947305134
mp-cfxzs,LaNiC2,Orthorhombic,38,135.707,77.026,194.31434344940686
mp-cgdxr,Mg6CoC,Orthorhombic,38,46.621,21.126,55.06113594096492
mp-cgeae,Mg6CuB,Orthorhombic,38,46.163,15.92,42.835810347842425
mp-cgedr,Mg6FeC,Orthorhombic,38,46.323,19.814,52.024431444172244
mp-cgeqz,Mg6ZrC,Orthorhombic,38,41.717,18.43,48.19299761110453
mp-cgful,CaYMg6,Orthorhombic,38,34.78,13.092,34.89728387492335
mp-crfgp,VRe11B4,Orthorhombic,38,354.771,132.178,352.7283457560484
mp-crhsv,TaB2Mo,Orthorhombic,38,296.676,188.191,466.03313245639333
mp-crlhv,NbB4Mo3,Orthorhombic,38,297.126,188.514,466.8167713771378
mp-crtze,CrB2W,Orthorhombic,38,301.097,201.556,494.35909441578787
mp-tzh,ErCoC2,Orthorhombic,38,177.407,98.793,249.97722357824077
mp-tzi,TmCoC2,Orthorhombic,38,172.008,100.095,251.50054914716148
mp-bdfh,CeNiC2,Orthorhombic,38,129.653,71.17,180.4855509867885
mp-becf,ZrPbO3,Orthorhombic,38,118.685,34.182,93.56369598474772
mp-ent,TbNiC2,Orthorhombic,38,145.7,95.952,236.04049436077534
mp-fzh,TmNiC2,Orthorhombic,38,170.384,100.038,250.99211591812693
mp-ghk,YCoC2,Orthorhombic,38,164.762,94.828,238.6914220745051
mp-hok,TbCoC2,Orthorhombic,38,175.952,95.326,242.23293222204745
mp-hqg,HoNiC2,Orthorhombic,38,166.911,98.467,246.85752492156206
mp-htu,KNbO3,Orthorhombic,38,103.853,50.363,130.0643170379253
mp-hzb,NdNiC2,Orthorhombic,38,145.636,86.592,216.80651883094552
mp-bgkjy,LiB6C,Orthorhombic,38,196.324,184.076,420.73303289834524
mp-iof,BaTiO3,Orthorhombic,38,97.867,51.278,130.96134074269526
mp-bkrkj,BaTiO3,Orthorhombic,38,22.363,23.855,52.79319454829346
mp-bqvbb,NbO2F,Orthorhombic,38,139.921,52.116,139.08036917091036
mp-mqm,NdRhC2,Orthorhombic,38,146.188,69.882,180.8317664884767
mp-myw,SmRhC2,Orthorhombic,38,149.588,71.025,183.96000934994777
mp-nue,PrNiC2,Orthorhombic,38,141.136,84.913,212.18586387735306
mp-cehyb,TiPN3,Orthorhombic,38,178.71,62.581,168.11893315806793
mp-cevym,ThCoC2,Orthorhombic,38,180.213,93.646,239.46024166108293
mp-cewck,SmCoC2,Orthorhombic,38,151.847,90.299,226.08216744284042
mp-cewgd,PrRhC2,Orthorhombic,38,143.047,68.759,177.7905564510946
mp-epa,SrAl2O4,Monoclinic,4,83.129,45.935,116.37052280222946
mp-ime,AlPO4,Monoclinic,4,26.709,29.63,64.8932553732336
mp-bkrbr,LiHS,Orthorhombic,40,21.446,7.822,20.922332427937913
mp-brvfy,Ba3Ti2O7,Orthorhombic,42,86.219,47.62,120.64810292643588
mp-bmhq,CuPO4,Orthorhombic,43,59.509,44.354,106.58225543675773
mp-bqtk,CuBIr,Orthorhombic,43,195.576,67.035,180.48426484827073
mp-bqtl,BIrPd,Orthorhombic,43,236.227,73.014,198.58244405042888
mp-bmlhz,NaBiS2,Orthorhombic,43,27.308,21.644,51.362285339100865
mp-ckxmx,Zn2SiO5,Orthorhombic,44,89.508,31.475,84.5182107273691
mp-rka,Lu7(NiTe)2,Orthorhombic,44,66.909,35.549,90.6013829970035
mp-cprkl,Zn2SiO5,Orthorhombic,44,91.797,31.336,84.40390682267945
mp-syo,Cu2GeTe3,Orthorhombic,44,49.734,21.715,56.868329598577084
mp-tjl,Cu2SnTe3,Orthorhombic,44,46.933,19.796,52.067443021264666
mp-bgqr,UGePt,Orthorhombic,44,124.931,36.408,99.55323705924837
mp-ewiwb,Ta2CuO6,Orthorhombic,44,133.739,76.212,192.13883113928986
mp-ftlrb,BaCO3,Orthorhombic,44,50.172,19.045,50.71762763843102
mp-bqvh,Si2NiP3,Orthorhombic,44,108.208,56.276,143.88453838802835
mp-eka,NaNO2,Orthorhombic,44,23.903,13.819,34.75867567346366
mp-bsar,UCO5,Orthorhombic,44,38.531,24.118,59.863689487585084
mp-bzvn,KCN,Orthorhombic,44,15.286,7.891,20.197518725929783
mp-gim,NaSi2Pd3,Orthorhombic,44,105.869,46.48,121.63883928841184
mp-gzw,Cu2GeSe3,Orthorhombic,44,59.424,26.243,68.62663515145589
mp-bghek,Sr(Si3N4)2,Orthorhombic,44,148.737,99.896,244.86791447097363
mp-bghxj,Ba(Si3N4)2,Orthorhombic,44,157.981,105.514,258.90249855640707
mp-bqwar,Li3(CuO)4,Orthorhombic,44,61.32,23.563,62.66268529271454
mp-rcq,TiSiRu,Orthorhombic,46,203.131,103.155,264.66400122518064
mp-muq,TiFeSi,Orthorhombic,46,187.835,113.376,283.15734765786016
mp-cfyyt,EuZnGe,Orthorhombic,47,46.265,37.428,88.43600313239473
mp-fdsif,NbAgO3,Orthorhombic,47,117.29,40.927,109.98798481149296
mp-flpdr,Fe11MoC4,Orthorhombic,47,201.371,86.946,228.02051155400622
mp-booo,KAuO2,Orthorhombic,47,46.429,18.352,48.646496564936335
mp-bkhed,AlCr3B4,Orthorhombic,47,248.749,182.763,440.4247762489102
mp-cesuk,CuPtO2,Orthorhombic,47,172.104,33.467,94.28923460517773
mp-cesvb,CuPdO2,Orthorhombic,47,155.3,28.501,80.57396263357073
mp-cesvf,CuAgO2,Orthorhombic,47,111.192,14.729,42.3184356009819
mp-ceszk,RbAgO2,Orthorhombic,47,40.617,18.339,47.81993342606462
mp-cgadx,B2S2O9,Monoclinic,5,32.078,30.371,69.25609922198966
mp-biob,Bi(BO2)3,Monoclinic,5,51.828,25.333,65.35131384770236
mp-bllt,Li3(CuO2)2,Monoclinic,5,69.336,33.635,86.85973622244386
mp-bfhfc,NbI2O,Monoclinic,5,12.477,8.811,21.39642798754379
mp-bfhso,NbBr2O,Monoclinic,5,15.153,10.177,24.946234973757996
mp-brslt,Dy2Ge2O7,Monoclinic,5,125.554,48.501,128.90456362853777
mp-cesuq,AgNO2,Monoclinic,5,19.738,8.52,22.34490566037736
mp-cfyyw,EuZnGe,Orthorhombic,51,42.42,27.809,68.46577987863468
mp-tzk,CeAl4Co,Orthorhombic,51,88.552,64.222,155.15699408872374
mp-xtl,CuSiO3,Orthorhombic,51,31.454,19.986,49.47840623360269
mp-bdnn,Co2CuGe2,Orthorhombic,51,157.602,75.992,196.40818781409556
mp-bqxz,CaThBr6,Orthorhombic,51,9.879,5.456,13.823224460718661
mp-bfxyf,CsCu5S3,Orthorhombic,51,34.94,13.442,35.742430535590465
mp-bgqtn,CsTeAu,Orthorhombic,51,9.36,3.5869999999999997,9.542074715002999
mp-brfsu,Nb5O12F,Orthorhombic,51,177.534,52.642,143.720744598834
mp-cesuu,CdAgO2,Orthorhombic,51,111.634,32.744,89.48307138932562
mp-ceszl,SrAgO2,Orthorhombic,51,80.968,31.012,82.50272544867771
mp-ziv,Sr3(AlN2)2,Orthorhombic,52,85.441,45.483,115.88575782787619
mp-btxz,H5NF2,Orthorhombic,53,30.335,11.003,29.44851428319347
mp-ceswq,CuPdO2,Orthorhombic,53,136.396,35.461,97.89889779129153
mp-cpuks,TmAlB4,Orthorhombic,55,181.007,153.686,359.3536109411848
mp-cputy,ScCoB4,Orthorhombic,55,223.874,172.568,411.87575769435796
mp-cqbkm,Sc2ReB6,Orthorhombic,55,226.401,195.537,455.481572847932
mp-cqxfa,LuCoB4,Orthorhombic,55,218.149,174.986,414.2072816321511
mp-bezo,Sr2PbO4,Orthorhombic,55,91.606,44.253,114.34622031460083
mp-bira,Al4Bi2O9,Orthorhombic,55,107.974,70.056,172.79654928955424
mp-bokv,Na3(CuS)4,Orthorhombic,55,41.123,18.701,48.71803341310621
mp-bozd,Sc(BC)2,Orthorhombic,55,190.279,150.727,357.72522672555726
mp-bqvq,Tl2PdSe2,Orthorhombic,55,31.919,8.703,23.93374988512349