material_id,formula_pretty,symmetry.crystal_system,symmetry.number,bulk_modulus.vrh,shear_modulus.vrh,youngs_modulus_vrh
mp-bxjwh,Sm2CuIr,Cubic,225,89.382,30.369,81.83835861514498
mp-bxjwo,Sm2MgAl,Cubic,225,50.087,30.872,76.8306867108699
mp-bxjwp,Sm2CuRu,Cubic,225,84.831,32.134,85.59428869576139
mp-bxjwq,ScZnCu2,Cubic,225,99.218,28.575,78.21618908803325
mp-bxjwr,ScTaRu2,Cubic,225,204.892,102.073,262.61002114268734
mp-bxjwt,Sm2IrRh,Cubic,225,110.279,24.382,68.125306365932
mp-bxjwv,ScTaTc2,Cubic,225,194.629,73.091,194.878145312324
mp-bxjww,LiSiRh2,Cubic,225,186.513,102.23,259.31256361358726
mp-bxjwy,AlGeRu2,Cubic,225,214.114,94.027,246.0620608716554
mp-bxjxc,LaBiAu2,Cubic,225,73.505,12.425,35.28675463638705
mp-bxjxd,ScCdRh2,Cubic,225,139.152,50.956,136.2383197014594
mp-bxjxf,ScCdPd2,Cubic,225,113.454,22.942,64.4797607843569
mp-bxjxj,ScGaCo2,Cubic,225,149.332,87.694,220.01471685489742
mp-bxjxk,ScGaIr2,Cubic,225,192.627,94.927,244.60102891315202
mp-bxjxl,CuGeRh2,Cubic,225,199.92,66.761,180.22197662189188
mp-bxjxn,ErNbRu2,Cubic,225,177.241,70.762,187.35296111604436
mp-bxjxp,Sm2ZnRu,Cubic,225,81.483,24.579,67.00022270172622
mp-bxjxq,ScAlRh2,Cubic,225,163.077,82.681,212.18356133985645
mp-bxjxs,LiCdPd2,Cubic,225,93.448,30.879,83.4457193973453
mp-bxjxt,SrAcHg2,Cubic,225,37.418,18.913,48.55779049608514
mp-bxjxv,LiVIr2,Cubic,225,223.046,108.216,279.45352236432825
mp-bxjxw,ScGaRh2,Cubic,225,163.021,75.808,196.90276844093606
mp-bxjzu,SmInRh2,Cubic,225,121.874,38.283,103.96336038920045
mp-bxjzv,LaInHg2,Cubic,225,52.025,11.561,32.29109036841728
mp-bxkab,SmPbAu2,Cubic,225,77.954,18.567,51.60400453989042
mp-nay,Rb2GeF6,Cubic,225,17.736,7.65,20.06512866015972
mp-nsg,Cs2PtF6,Cubic,225,11.837,7.232,18.02509547762207
mp-oai,LiAg2Ge,Cubic,225,64.676,17.417,47.94701708718579
mp-cdhle,YbNdCd2,Cubic,225,42.101,21.937,56.07209075148408
mp-cdhlh,Tm2MgTl,Cubic,225,51.653,19.59,52.17411976006738
mp-cdhmo,ZnCuNi2,Cubic,225,155.672,56.716,151.72232815256658
mp-cdhmp,ZnCuPt2,Cubic,225,183.726,55.834,152.09488009462748
mp-cdhox,DyYHg2,Cubic,225,66.15,27.672,72.85679942685806
mp-cdhqi,Zn2NiIr,Cubic,225,176.569,56.286,152.6387936477057
mp-cdhsl,Zn2PdAu,Cubic,225,128.444,18.995,54.307884509320424
mp-cdhtq,DyYAl2,Cubic,225,65.046,36.907,93.11070912107566
mp-cdhts,DyYAg2,Cubic,225,67.395,33.808,86.89415126719861
mp-cdhvv,Tm2ZnAg,Cubic,225,68.975,31.805,82.70325838813721
mp-cdhwb,TbAlCu2,Cubic,225,92.528,23.388,64.71168007655199
mp-cdhza,YbTmHg2,Cubic,225,53.312,25.438,65.84178959293106
mp-cdibf,SrCaTl2,Cubic,225,28.313,16.901,42.2885125392773
mp-cdido,YbMgIn2,Cubic,225,37.737,17.921,46.415543063478026
mp-cdien,V2MoOs,Cubic,225,263.582,116.67,305.0078546774578
mp-cdier,Ta2TcW,Cubic,225,250.356,104.672,275.6063396452193
mp-cdiez,Ti2CuTc,Cubic,225,167.17,52.288,142.05335635014933
mp-cdifu,Ti2VIr,Cubic,225,179.691,84.534,219.22459328711835
mp-cdifx,Ti2ReTc,Cubic,225,217.331,83.786,222.73489253430716
mp-cdiga,Tm2ZnGa,Cubic,225,68.836,41.351,103.35689615466858
mp-cdihe,Tm2ZnHg,Cubic,225,68.285,32.424,83.97985308434374
mp-cdihf,Ti2ReRu,Cubic,225,219.69,93.59,245.8574707039035
mp-cdijb,TaNbTc2,Cubic,225,251.053,123.911,319.2151761512764
mp-cdijp,Ti2IrW,Cubic,225,216.082,92.111,241.95322245619346
mp-cdikw,Yb2InHg,Cubic,225,36.324,18.49,47.423364139900514
mp-cdilw,Ti2MnRe,Cubic,225,230.659,71.729,194.9761488046447
mp-cdimp,YErAl2,Cubic,225,65.872,36.138,91.65336646217818
mp-cdimu,YErAg2,Cubic,225,68.674,35.034,89.82694578853047
mp-cdiod,TmLuIn2,Cubic,225,57.35,15.051,41.52074895377363
mp-cdiqa,Sm2AlZn,Cubic,225,56.309,31.189,78.98415223670271
mp-cdiqh,Sm2AgSn,Cubic,225,62.377,21.731,58.41000891976522
mp-cdiqs,SmTmZn2,Cubic,225,58.598,27.032,70.28778472187983
mp-cdiqw,SmSnAu2,Cubic,225,84.809,17.723,49.706519063016714
mp-cdiqy,SmYAg2,Cubic,225,63.294,27.002,70.92077466295346
mp-cdira,Sm2AgRh,Cubic,225,79.206,21.569,59.32221880727043
mp-cdirg,Sm2TlAg,Cubic,225,57.182,18.836,50.917215745186
mp-cdirk,SmYZn2,Cubic,225,59.049,27.058,70.41811208344556
mp-cdirl,SmTmTl2,Cubic,225,52.625,15.513,42.37516220845733
mp-cditt,SmLuMg2,Cubic,225,40.91,22.235,56.473663642948296
mp-cdiup,SmHgAu2,Cubic,225,83.971,11.832,33.90359570039243
mp-cdivb,SmErHg2,Cubic,225,62.653,21.019,56.714729124596836
mp-cdivg,SmDyZn2,Cubic,225,57.307,27.83,71.8578845162227
mp-cdivt,SmHoTl2,Cubic,225,52.516,15.194,41.572709219529706
mp-cdjbu,SiTc2W,Cubic,225,286.173,99.977,268.64636074537606
mp-cdjdt,Sc2TlTc,Cubic,225,103.541,32.002,87.0388084290405
mp-cdjdy,Sc2PdAu,Cubic,225,107.16,28.725,79.10663468539855
mp-cdjeb,Sc2GaPt,Cubic,225,107.133,36.88,99.25110140421293
mp-cdjej,Sc2AlIr,Cubic,225,117.54,51.8,135.4956431432669
mp-cdjel,Sc2RuAu,Cubic,225,125.306,30.673,85.07713757067913
mp-cdjeo,Sc2CdAg,Cubic,225,72.853,31.094,81.66383195074764
mp-cdjeq,Sc2AlCu,Cubic,225,81.231,38.357,99.42207836553804
mp-cdjfe,Sc2GaAu,Cubic,225,90.144,35.177,93.38389704491686
mp-cdjff,Sc2GaIr,Cubic,225,118.555,47.121,124.82527047861646
mp-cdjfn,Sc2AlAg,Cubic,225,78.735,34.736,90.84800986192566
mp-cdjfu,Sc2AlCd,Cubic,225,72.984,37.11,95.19540642500644
mp-cdjgf,ScZn2Au,Cubic,225,98.751,37.129,98.98174739787989
mp-cdjgz,HoErAg2,Cubic,225,69.968,35.826,91.80833480649494
mp-cdjhd,LaSmZn2,Cubic,225,49.862,26.851,68.29407130023748
mp-cdjhl,ScTiRu2,Cubic,225,177.267,77.929,203.90691025043876
mp-cdjho,La2IrAu,Cubic,225,86.527,12.239,35.06377594363918
mp-cdjhp,Sc2NiRh,Cubic,225,118.07,40.973,110.1746254013963
mp-cdjhu,Sc2OsAu,Cubic,225,135.881,36.621,100.80691415239589
mp-cdjim,HoErAl2,Cubic,225,67.462,36.47,92.70460972301302
mp-cdjlg,Na2CdHg,Cubic,225,17.144,7.485,19.602246550231683
mp-cdjli,LiLu2Al,Cubic,225,54.59,35.495,87.51686673525205
mp-cdjmm,MgInAg2,Cubic,225,68.284,19.238,52.75928567986076
mp-cdjon,ScCdCu2,Cubic,225,90.97,37.258,98.34748375074156
mp-cdjoo,ScZn2Pd,Cubic,225,104.061,33.304,90.28075700677597
mp-cdjoz,ScAlPt2,Cubic,225,157.156,14.097,41.06320098853913
mp-cdjsy,LaMgTl2,Cubic,225,44.465,15.15,40.814586488942744
mp-cdjtm,Ho2RuAu,Cubic,225,104.31,35.688,96.10386589332737
mp-cdjts,HoLuCd2,Cubic,225,59.674,28.768,74.35542946243804
mp-cdjvp,Li2MgGe,Cubic,225,38.78,25.839,63.4293937923322
mp-cdjwh,Li2MgHg,Cubic,225,30.915,18.917,47.136639993910194
mp-cdjzs,LuScRh2,Cubic,225,130.571,46.272,124.15044306996815
mp-cdkac,Lu2AgPt,Cubic,225,99.763,35.918,96.20797568666526
mp-cdkad,Hf2ReTc,Cubic,225,199.747,79.557,210.6980997454324
mp-cdkdu,Lu2AlZn,Cubic,225,67.89,40.238,100.79956532791053
mp-cdker,LiCe2Ru,Cubic,225,65.477,6.7,19.43702881391811
mp-cdkeu,La2TlZn,Cubic,225,45.039,16.18,43.34903653079703
mp-cdkfc,La2TlHg,Cubic,225,48.249,17.844,47.656982268391246
mp-cdkgk,Nd2IrAu,Cubic,225,92.21,24.25,66.88657438181335
mp-cdkho,Lu2ZnGa,Cubic,225,68.94,40.108,100.7800236506188
mp-cdkhy,Lu2ZnHg,Cubic,225,70.073,32.936,85.42419013386522
mp-cdkif,Lu2ZnAg,Cubic,225,69.957,32.871,85.2592832019181
mp-cdkli,Lu2InHg,Cubic,225,65.863,24.399,65.15181916590087
mp-cdkmt,Lu2MgHg,Cubic,225,57.128,25.804,67.28187419112724
mp-cdkpl,LiHo2Al,Cubic,225,51.616,33.455,82.53357365522588
mp-cdkpr,La2ZnGa,Cubic,225,47.145,25.569,64.9628424768269
mp-cdkqs,LiLa2Al,Cubic,225,36.572,21.112,53.11533139694866
mp-cdkrf,LaPrHg2,Cubic,225,51.146,17.531,47.20016338634489
mp-cdkri,HoHfRu2,Cubic,225,157.415,71.534,186.37115719805288
mp-cdkrl,Lu2TlHg,Cubic,225,63.57,21.382,57.679137638383345
mp-cdkrm,LaNdZn2,Cubic,225,47.768,27.055,68.27504951308707
mp-cdksc,PaAlCu2,Cubic,225,112.124,27.647,76.64168642845566
mp-cdktw,Lu2CdAg,Cubic,225,66.319,28.195,74.08597698897655
mp-cdktx,La2ZnAg,Cubic,225,48.916,16.435,44.33923962667679
mp-cdkut,LiFePd2,Cubic,225,119.616,34.793,95.15318625854522
mp-cdkxz,HoScRu2,Cubic,225,130.162,51.077,135.50628169932716
mp-cdleb,HoErTl2,Cubic,225,52.564,13.122,36.34188808879834
mp-cdlfh,HoErZn2,Cubic,225,62.845,30.971,79.80352452780335
mp-cdlkl,Nd2AgHg,Cubic,225,56.88,17.033,46.4613096183255
mp-cdlpl,NdErMg2,Cubic,225,40.097,22.854,57.6156452687834
mp-cdlpr,NdErTl2,Cubic,225,51.522,14.981,40.97188235710452
mp-cdlpv,NdSmZn2,Cubic,225,53.007,28.981,73.54050915947703
mp-cdluc,NdErZn2,Cubic,225,57.029,27.584,71.26249640863539
mp-cdlug,LiAg2Pb,Cubic,225,47.164,8.871,25.042906805530613
mp-cdlwu,NdTmTl2,Cubic,225,52.034,16.032,43.61649524207884
mp-cdlzq,NdTlAg2,Cubic,225,62.88,18.307,50.06256403813537
mp-cdmfv,HfZrTc2,Cubic,225,182.079,71.432,189.51316020716595
mp-cdmgz,HfZrZn2,Cubic,225,109.761,49.601,129.32269045143101
mp-cdmjx,NdSmHg2,Cubic,225,57.477,18.171,49.31601506280103
mp-cdmou,Rb2HgAu,Cubic,225,10.354,4.825,12.528839133948225
mp-cdmsp,RbNa2Sb,Cubic,225,17.884,10.261,25.8409011625178
mp-cdmwe,LiCa2Mg,Cubic,225,20.611,9.154,23.920687534337272
mp-cdnbv,NdLuMg2,Cubic,225,40.599,23.058,58.1628917054986
mp-cdnby,NdLuIn2,Cubic,225,55.675,20.488,54.74833531541813
mp-cdncc,NdLuTl2,Cubic,225,52.906,17.653,47.65832569980326
mp-cdnfk,Li2TlPt,Cubic,225,56.12,17.316,47.10336974083888
mp-cdnha,Pr2ZnHg,Cubic,225,52.434,21.09,55.790044060271754
mp-cdnhg,Pr2NiIr,Cubic,225,62.475,28.516,74.25099402151513
mp-cdnlp,PrYZn2,Cubic,225,55.032,27.633,71.01314957271609
mp-cdnmi,Pr2AgHg,Cubic,225,54.491,17.233,46.76873278695782
mp-cdnmn,PrTmTl2,Cubic,225,51.881,16.163,43.92729838888048
mp-cdnmv,PrTlAg2,Cubic,225,61.809,18.365,50.13003731746093
mp-cdnnq,PrNdZn2,Cubic,225,51.524,27.862,70.82043474352369
mp-cdnoq,PrNdMg2,Cubic,225,37.416,22.948,57.15850551791473
mp-cdnpw,PrSmMg2,Cubic,225,38.321,23.158,57.82567069453596
mp-cdnpz,PrNdHg2,Cubic,225,55.153,18.684,50.36470497385184
mp-cdnqm,PrNdTl2,Cubic,225,50.892,16.497,44.66485737085706
mp-cdnrk,PrSmTl2,Cubic,225,51.835,17.144,46.324816013993704
mp-cdnrw,PrLuIn2,Cubic,225,55.104,20.724,55.246176352963936
mp-cdnrx,NdHoIn2,Cubic,225,55.325,21.051,56.0447166436752
mp-cdntk,PrLuMg2,Cubic,225,41.51,23.46,59.223065071964314
mp-cdnuj,NaLi2Pb,Cubic,225,22.028,13.808,34.264552345666644
mp-cdnuu,NdTmMg2,Cubic,225,40.406,22.702,57.362931545302956
mp-cdnvq,PrHoMg2,Cubic,225,39.674,23.12,58.07830141689297
mp-cdnxk,NaAc2Sn,Cubic,225,33.683,15.328,39.92745315655155
mp-cdnxq,Mn2GaW,Cubic,225,240.29,114.133,295.5979405223694
mp-cdnyw,Li2CdHg,Cubic,225,30.724,12.342,32.653620299672774
mp-cdnzl,PrErZn2,Cubic,225,55.889,27.557,71.00150881551448
mp-cdnzy,PrDyTl2,Cubic,225,54.819,16.048,43.86370354283815
mp-cdoah,PrErMg2,Cubic,225,39.817,23.028,57.91838014023119
mp-cdoap,PrErIn2,Cubic,225,54.562,20.646,55.000669813163206
mp-cdocy,NaCdHg2,Cubic,225,24.122,8.211,22.12283502736513
mp-cdodo,NaCaTl2,Cubic,225,24.373,11.459,29.7194526117903
mp-cdoel,LiTmRh2,Cubic,225,103.934,38.993,103.97607194515315
mp-cdoem,LiTm2Au,Cubic,225,64.88,35.495,90.06122667130163
mp-cdoen,NaCa2In,Cubic,225,24.704,15.823,39.117390648801916
mp-cdoer,Hf2OsPd,Cubic,225,187.278,51.58,141.72841369776367
mp-cdohe,LiZr2Ir,Cubic,225,131.667,40.126,109.27713145357563
mp-cdohh,Li2AcTl,Cubic,225,33.082,14.653,38.30371569548459
mp-cdohp,Nd2ZnAg,Cubic,225,54.104,21.056,55.914469351249934
mp-cdohr,HoErPd2,Cubic,225,92.604,26.844,73.43612462580748
mp-cdohs,Nd2ZnGa,Cubic,225,54.936,26.014,67.4028462965486
mp-cdokw,LiLuHg2,Cubic,225,54.534,16.026,43.788590620615935
mp-cdork,LiLu2Ga,Cubic,225,56.068,37.55,92.09143248733922
mp-cdorm,LiHf2Ir,Cubic,225,142.948,57.973,153.20771385551447
mp-cdoro,LiHf2Tc,Cubic,225,127.886,38.137,104.06641955926456
mp-cdoxc,LiEr2Tl,Cubic,225,50.836,28.817,72.71181088101476
mp-cdoyz,LiEr2Ga,Cubic,225,54.254,36.081,88.60179722695796
mp-cdpcm,PrBiPd2,Cubic,225,88.095,11.465,32.96494134179511
mp-cdple,NaSnPd2,Cubic,225,80.165,24.056,65.60566076106309
mp-cdpml,LaDyRu2,Cubic,225,101.916,33.847,91.42053819402524
mp-cdpod,La2MgTl,Cubic,225,40.649,16.716,44.10259518400727
mp-cdpum,ThMgZn2,Cubic,225,67.816,23.653,63.56848552846531
mp-cdpun,Ta2ReMo,Cubic,225,256.583,110.354,289.5509314682486
mp-cdpuo,HoTaOs2,Cubic,225,210.79,91.004,238.66575027579094
mp-cdpuq,ZnGaIr2,Cubic,225,216.901,92.854,243.77570123877524
mp-cdpus,Ho2AgIr,Cubic,225,101.795,33.565,90.72353614102374
mp-cdpuw,ZnGaRh2,Cubic,225,177.634,83.13,215.7362438639551
mp-cdpux,Ta2TcMo,Cubic,225,242.63,102.984,270.6584527617906
mp-cdpvb,CdInRh2,Cubic,225,144.382,59.398,156.70481890754937
mp-cdpvd,HoMgHg2,Cubic,225,62.805,26.252,69.12479207330423
mp-cdpvg,Pm2SnHg,Cubic,225,58.633,19.612,52.93407309051664
mp-cdpvk,TbCdAu2,Cubic,225,87.541,21.331,59.18576121132295
mp-cdpvo,LiMg2Pd,Cubic,225,57.675,25.898,67.57893431126617
mp-cdpvq,Ta2VRu,Cubic,225,227.823,82.513,220.87364036100064
mp-cdpvs,ZnSiRh2,Cubic,225,204.49,66.124,179.0705492396931
mp-cdpvz,LiNd2Os,Cubic,225,73.027,30.528,80.38297619076235
mp-cdpwa,Ho2MgIn,Cubic,225,53.469,28.17,71.88573139884504
mp-cdpwe,TbMgRh2,Cubic,225,113.246,45.839,121.16840617049252
mp-cdpwg,TbCdAg2,Cubic,225,71.476,11.975,34.02484021854834
mp-cdpwh,LiMgPd2,Cubic,225,84.673,40.498,104.7877860564925
mp-cdpwj,NbGaRu2,Cubic,225,233.221,106.447,277.1719518217117
mp-cdpwm,Nd2AgIr,Cubic,225,83.856,20.958,58.038816230378025
mp-cdpwp,Hf2ReRh,Cubic,225,197.44,92.43,239.86040569550934
mp-cdpwx,HoCdAu2,Cubic,225,89.835,22.834,63.1514492079401
mp-cdpwy,Er2AgIr,Cubic,225,103.391,34.938,94.20294578266125
mp-cdpxa,LiMgAu2,Cubic,225,68.967,18.185,50.14742833850172
mp-cdpxd,TbGaRh2,Cubic,225,132.553,44.279,119.52769072358565
mp-cdpxh,Ta2CrRu,Cubic,225,243.884,104.198,273.62568078961533
mp-cdpxj,Zn2PtRh,Cubic,225,174.554,67.06,178.3416245882158
mp-cdpxm,MgNbRu2,Cubic,225,188.842,81.355,213.41753839053777
mp-cdpxs,ZrAlRu2,Cubic,225,188.517,75.849,200.63834330682883
mp-cdpxu,MgInRh2,Cubic,225,136.968,68.715,176.61061192321407
mp-cdpxv,Ce2ZnPb,Cubic,225,35.63,16.368,42.5832526894806
mp-cdpxy,Yb2ZnGa,Cubic,225,37.583,26.477,64.32538332639018
mp-cdpxz,ZrGeRu2,Cubic,225,205.066,90.314,236.25817351937317
mp-cdpya,PaAgAu2,Cubic,225,121.198,16.372,46.99968656142918
mp-cdpyb,Nd2ZnIr,Cubic,225,80.699,26.458,71.55408492859937
mp-cdpys,ZrCdAu2,Cubic,225,121.203,33.045,90.87612431741518
mp-cdpyt,MgMnRh2,Cubic,225,136.68,56.653,149.32726301872964
mp-cdqbm,ZrNbTc2,Cubic,225,203.512,77.459,206.21446968655292
mp-cdqbp,ZrCdRh2,Cubic,225,161.156,52.302,141.58879744666555
mp-cdqbt,Hf2TcOs,Cubic,225,206.099,92.747,241.94786198463103
mp-cdqbu,LiTbTl2,Cubic,225,42.072,17.115,45.21394897126232
mp-cdqbx,ZrTc2W,Cubic,225,238.342,113.467,293.7810765160357
mp-cdqby,Pm2ZnGa,Cubic,225,56.628,28.549,73.3247743470088
mp-cdqbz,MgZnRh2,Cubic,225,140.599,62.854,164.1075452521505
mp-cdqcb,Zr2OsRu,Cubic,225,196.255,91.155,236.80230133692203
mp-cdqcc,ZrScOs2,Cubic,225,188.108,91.242,235.62867998645444
mp-cdqcf,Yb2PtAu,Cubic,225,63.365,20.657,55.89687046860765
mp-cdqcg,MgScAg2,Cubic,225,72.567,28.927,76.60245584848435
mp-cdqcn,LiTaIr2,Cubic,225,222.448,100.908,262.9619513597101
mp-cdqcp,LiNbIr2,Cubic,225,209.556,85.649,226.13819438148613
mp-cdqcr,NdBiAu2,Cubic,225,78.758,9.338,26.948926909108675
mp-cdqcs,MgScPd2,Cubic,225,101.961,30.299,82.70474639034809
mp-cdqcw,LiPr2Os,Cubic,225,70.817,28.583,75.5804608436984
mp-cdqcy,Hf2MnRh,Cubic,225,175.266,73.696,193.90957745031642
mp-cdqde,Zr2TcPd,Cubic,225,159.375,52.852,142.77376892031106
mp-cdqdg,MgSc2Al,Cubic,225,64.52,43.212,105.97682225938878
mp-cdqdi,ZrZnRh2,Cubic,225,172.759,59.624,160.41717101025955
mp-cdqdp,Tm2TlCd,Cubic,225,60.245,24.389,64.46753059125211
mp-cdqwp,Pr2ZnAg,Cubic,225,52.345,20.487,54.368067816946635
mp-cdqwr,Pr2TlAg,Cubic,225,52.072,15.917,43.33550345372474
mp-cdqwv,Pr2IrAu,Cubic,225,89.437,21.893,60.72417392248212
mp-cdqxb,Pr2CdPb,Cubic,225,50.071,18.011,48.24792555758988
mp-cdqxg,Pr2InAg,Cubic,225,51.212,15.684,42.693604252303324
mp-cdrdg,Mg2TlPb,Cubic,225,35.144,4.9350000000000005,14.143002527929546
mp-cdrdl,MnBe2Co,Cubic,225,172.297,95.017,240.78831530393458
mp-cdrdp,Mg2ZnPd,Cubic,225,72.28,25.948,69.52441207967445
mp-cdrdr,Mg2ZnRh,Cubic,225,84.27,29.257,78.66707736105252
mp-cdrmq,Si2TcOs,Cubic,225,264.313,95.512,255.73224556447119
mp-cdrnd,SmErMg2,Cubic,225,40.708,21.424,54.67964533117841
mp-cdrnf,SmYAl2,Cubic,225,61.458,35.85,90.04206489755884
mp-cdrnj,Sm2AlCd,Cubic,225,56.287,28.563,73.29164756564552
mp-cdrnn,Sc2ZnCu,Cubic,225,81.396,42.953,109.58317165434404
mp-cdrnr,SmDyTl2,Cubic,225,54.144,16.825,45.73743396352723
mp-cdrnt,SmTmHg2,Cubic,225,63.549,22.229,59.72339056070201
mp-cdrob,SmHoZn2,Cubic,225,57.325,27.18,70.41169691948483
mp-cdrog,SmErIn2,Cubic,225,55.814,20.911,55.76836570694388
mp-cdroh,SmErTl2,Cubic,225,52.76,14.781,40.55570024442248
mp-cdroj,Sm2AgHg,Cubic,225,59.622,18.699,50.78756865841622
mp-cdrol,SmLuIn2,Cubic,225,56.065,20.047,53.73623046397722
mp-cdron,SmLuZn2,Cubic,225,59.305,29.737,76.43545482345462
mp-cdrot,Sm2CdIr,Cubic,225,83.241,23.106,63.447430126562786
mp-cdrov,SmDyHg2,Cubic,225,61.688,18.658,50.847588066090054
mp-cdrpb,SmHoIn2,Cubic,225,56.394,21.466,57.1471110947925
mp-cdrpc,SmYTl2,Cubic,225,53.46,17.948,48.42481674218294
mp-cdrrk,Sm2MgIr,Cubic,225,75.698,18.839,52.187675496984944
mp-cdrrl,Sm2MgTl,Cubic,225,46.667,21.479,55.86601707332178
mp-cdrya,SmDyIn2,Cubic,225,56.106,22.203,58.84649808682507
mp-cdryl,Sm2TlHg,Cubic,225,57.031,20.78,55.58852793253872
mp-cdrym,Sm2ZnGa,Cubic,225,58.628,30.881,78.80647794355912
mp-cdryt,Sm2TlZn,Cubic,225,55.425,22.421,59.270759979013874
mp-cdrzc,Sm2RuAu,Cubic,225,93.022,29.788,80.74512236849773
mp-cdrzl,SmYIn2,Cubic,225,55.99,22.726,60.05295685279188
mp-cdsch,TbTlAg2,Cubic,225,68.02,20.09,54.868151684140074
mp-cdscl,TbYHg2,Cubic,225,64.962,27.122,71.4257786926597
mp-cdsdd,SrAcZn2,Cubic,225,34.157,22.956,56.2635862134947
mp-cdsdy,Sm2ZnIn,Cubic,225,55.434,26.257,68.02992766892224
mp-cdseb,SrAcTl2,Cubic,225,33.088,16.505,42.455726144304606
mp-cdsev,Sm2ZnHg,Cubic,225,56.78,20.46,54.79805660377358
mp-cdsex,TbYTl2,Cubic,225,54.245,16.993,46.159015651428824
mp-cdsey,Ti6Al16Pt7,Cubic,225,131.544,38.65,105.60692666669745
mp-cdsfk,TbTmHg2,Cubic,225,68.08,27.068,71.70138931640929
mp-cdsfr,TmMnRh2,Cubic,225,135.403,49.453,132.25759670764737
mp-cdsho,Tm2CuAu,Cubic,225,86.553,40.594,105.31715699093765
mp-cdsib,Sm2ZnAg,Cubic,225,57.911,22.245,59.160067737195
mp-cdsir,TmMg2Sc,Cubic,225,46.104,24.536,62.51762192965219
mp-cdsmq,Tm2AgHg,Cubic,225,71.509,28.734,76.0198159754338
mp-cdspu,Tm2CdHg,Cubic,225,65.115,28.297,74.1499020532816
mp-cdsqd,Ta2FeMo,Cubic,225,231.554,107.068,278.3084243423596
mp-cdsqg,Tb2AgIr,Cubic,225,96.964,31.058,84.18565369777916
mp-cdsqx,TbLuHg2,Cubic,225,67.917,26.88,71.2414230524084
mp-cdsvx,DyYCd2,Cubic,225,56.229,24.488,64.15127096156334
mp-cdswb,YErZn2,Cubic,225,61.225,31.495,80.65498152623506
mp-cdswe,YErIn2,Cubic,225,57.035,21.058,56.25113715959888
mp-cdswf,YHoAg2,Cubic,225,68.344,34.495,88.58181549470414
mp-cdswh,YHoZn2,Cubic,225,60.525,30.364,78.04146428925304
mp-cdswj,YHoCd2,Cubic,225,57.371,26.801,69.56977155454116
mp-cdswk,YLuTl2,Cubic,225,55.052,16.293,44.48996756113288
mp-cdswl,YLuZn2,Cubic,225,62.844,35.072,88.7130056349618
mp-cdswo,DyYTl2,Cubic,225,54.087,16.268,44.35685991631612
mp-cdswp,YMg2Sc,Cubic,225,44.842,25.076,63.40849067054297
mp-cdthg,DyYZn2,Cubic,225,59.82,29.032,74.96809546649271
mp-cdthj,YHoAl2,Cubic,225,65.616,36.683,92.76252639692375
mp-cdtit,TaTiFe2,Cubic,225,211.21,80.366,213.96047840604152
mp-cdtow,VCuRh2,Cubic,225,218.716,37.09,105.31677138298824
mp-cdtpr,YNbRu2,Cubic,225,169.646,62.863,167.8557898324767
mp-cdtpu,YErHg2,Cubic,225,63.799,28.694,74.85920166658337
mp-cdtqk,AcYbMg2,Cubic,225,27.943,16.494,41.346715887682784
mp-cdtqv,Yb2AgHg,Cubic,225,38.785,18.393,47.64710826876836
mp-cdtqw,AcYbCd2,Cubic,225,36.361,18.723,47.940495962630855
mp-cdtqz,YbSmPt2,Cubic,225,93.151,35.89,95.41579965307618
mp-cdtrb,Yb2GaHg,Cubic,225,39.597,23.271,58.37701906913882
mp-cdtrc,Yb2CdHg,Cubic,225,34.65,17.672,45.312634227360185
mp-cdtrv,YbThPt2,Cubic,225,106.657,30.747,84.15434910954099
mp-cdtrx,Yb2AgPd,Cubic,225,47.651,18.544,49.244018749574295
mp-cdtua,YbPrCd2,Cubic,225,41.352,21.5,54.97273901453736
mp-cdtuj,YbPrAu2,Cubic,225,64.929,20.684,56.09535818741269
mp-cdtuk,YbPbAu2,Cubic,225,62.462,14.993,41.646785951111525
mp-cdtul,YErMg2,Cubic,225,42.167,20.656,53.26973210924387
mp-cdtup,TbPmRh2,Cubic,225,102.32,15.253,43.592848953952824
mp-cdtus,YbErZn2,Cubic,225,48.824,29.049,72.72403520946212
mp-cdtuu,YbErHg2,Cubic,225,52.673,25.653,66.21033266366132