material_id,formula_pretty,symmetry.crystal_system,symmetry.number,bulk_modulus.vrh,shear_modulus.vrh,youngs_modulus_vrh
mp-cfopj,Cs2Se,Cubic,225,11.808,5.71,14.752105800554284
mp-cfske,CrN2,Cubic,225,265.131,21.11,61.69265598534236
mp-paj,InSb,Cubic,225,48.001,13.854,37.914395218457216
mp-pat,K3Sb,Cubic,225,13.114,6.582,16.915929187353022
mp-cfxyt,Mn3Sn,Cubic,225,138.52,27.863,78.33658795326357
mp-cfyal,CrFe3,Cubic,225,178.768,77.935,204.13968621334692
mp-cfydk,LaH3,Cubic,225,82.577,27.554,74.38814291370761
mp-cfyef,PtC,Cubic,225,259.237,15.884,46.6982334465313
mp-pca,LuP,Cubic,225,86.563,65.526,156.97044798671644
mp-pcf,ZrO,Cubic,225,197.527,29.097,83.20543443872874
mp-cgddc,K2Sn,Cubic,225,8.242,3.639,9.516437228979377
mp-bni,K2S,Cubic,225,18.259,9.782,24.899484843321616
mp-cgfnc,CuS,Cubic,225,104.037,40.689,107.98881359693878
mp-cgixb,CePd7,Cubic,225,143.898,45.333,123.0746945267249
mp-bnp,BaF2,Cubic,225,54.086,25.35,65.77395899961623
mp-bop,CdSe,Cubic,225,59.102,26.802,69.84766023869717
mp-cieaw,CsH,Cubic,225,8.987,6.816,16.321713828936847
mp-cifbn,IN,Cubic,225,89.968,15.186,43.13124428075345
mp-pso,PrAs,Cubic,225,70.29,44.49,110.21623942669173
mp-ptb,SnSb,Cubic,225,51.179,24.656,63.733282541962915
mp-boz,LaSb,Cubic,225,49.747,28.091,70.92339111384297
mp-pvc,CeO,Cubic,225,148.033,80.747,204.972479277731
mp-pwq,PdO,Cubic,225,173.814,22.013,63.364047139137554
mp-pxv,GeSe,Cubic,225,57.611,44.393,105.9621136834449
mp-pxw,MgSe,Cubic,225,60.707,41.4,101.19598695424591
mp-pya,HgS,Cubic,225,65.862,13.773,38.62648826877493
mp-bps,ZrB12,Cubic,225,233.379,219.913,502.0462847051792
mp-bpu,TaC,Cubic,225,323.894,176.246,447.558729568405
mp-bpv,SrS,Cubic,225,48.468,32.3,79.28717192634943
mp-bqb,ThGe,Cubic,225,86.356,42.681,109.9319100444409
mp-bqe,CeS,Cubic,225,87.161,52.574,131.3189062049246
mp-bqj,TmAs,Cubic,225,79.857,55.255,134.69804839125447
mp-bqk,LuN,Cubic,225,178.449,146.135,344.3947184738555
mp-qqp,Li3Au,Cubic,225,33.973,9.25,25.441015480934436
mp-bro,CdO,Cubic,225,127.369,44.447,119.44684491764232
mp-qtr,Rb2Se,Cubic,225,13.717,6.979,17.901069748597546
mp-qtz,BeSe,Cubic,225,87.774,66.886,160.01328216154667
mp-bru,LiF,Cubic,225,69.649,50.018,121.07170134188017
mp-qzx,Li3Pd,Cubic,225,36.429,15.968,41.79700968424413
mp-bsj,Li2S,Cubic,225,40.49,33.875,79.46434548907271
mp-bsu,ThC,Cubic,225,97.603,71.668,172.7272399520409
mp-ris,RbF,Cubic,225,25.133,13.408,34.15101710450753
mp-btg,TbTe,Cubic,225,63.35,21.785,58.63392616895225
mp-cpktr,K3Mo,Cubic,225,6.71,2.555,6.801694952611859
mp-cpmmc,Na3Au,Cubic,225,18.941,6.198,16.765314133384113
mp-rwx,Cu2S,Cubic,225,91.395,21.175,58.97075475690683
mp-bvs,HoS,Cubic,225,99.911,42.662,112.03910027307643
mp-ctgqb,Si3Os,Cubic,225,172.924,67.583,179.3802461444006
mp-bwf,BaSe,Cubic,225,35.501,21.416,53.491699778766254
mp-sqy,CuPt7,Cubic,225,229.485,67.266,183.83615393776276
mp-bwr,MgO,Cubic,225,151.45,118.82,282.56468586981174
mp-bws,Na2Se,Cubic,225,23.909,15.694,38.629741297857485
mp-bwv,SmS,Cubic,225,90.438,39.284,102.94624410974957
mp-sxl,AlCu3,Cubic,225,138.352,47.92,128.88022394249379
mp-bxg,ErTe,Cubic,225,65.928,20.06,54.63837020987495
mp-bxi,VC,Cubic,225,306.705,208.742,510.4277477040935
mp-tff,SnO2,Cubic,225,185.31,57.406,156.09902686292668
mp-tlg,WC,Cubic,225,365.029,130.115,348.89082372947485
mp-byp,MgS,Cubic,225,74.305,51.763,126.02482701563287
mp-tmt,PtN,Cubic,225,234.662,26.883,77.68254901220328
mp-bze,AlN,Cubic,225,252.764,216.097,504.515012969153
mp-bzq,BaO,Cubic,225,68.281,37.058,94.1427099598596
mp-caa,ZrN,Cubic,225,247.481,147.586,369.33917635717484
mp-cap,Mg2Si,Cubic,225,54.228,46.085,107.73570989945826
mp-cbq,Rb2O,Cubic,225,22.839,7.73,20.83897373011397
mp-ccc,MnTe,Cubic,225,46.537,29.189,72.42486040876777
mp-ccg,DyN,Cubic,225,163.58,123.389,295.7941305165527
mp-ccl,CaSe,Cubic,225,47.761,32.174,78.8225133565489
mp-cdc,Be2B,Cubic,225,144.862,92.441,228.6803015367334
mp-cdr,SmSe,Cubic,225,76.17,29.406,78.15992485925649
mp-cdx,NdSe,Cubic,225,73.49,28.425,75.53618694630266
mp-vnp,CuO,Cubic,225,179.442,35.321,99.4385709992382
mp-ceu,ScS,Cubic,225,99.417,53.382,135.8339650886009
mp-cfs,BaS,Cubic,225,41.171,24.774,61.905178377066086
mp-cfu,Al2Pt,Cubic,225,129.675,38.584,105.3074696743988
mp-cgl,CaTe,Cubic,225,37.042,23.516,58.22638588256265
mp-cha,YS,Cubic,225,93.243,42.129,109.84381038532518
mp-chm,DyMg3,Cubic,225,41.005,24.698,61.70528937872767
mp-cia,LaTe,Cubic,225,54.332,21.792,57.66622559906487
mp-cib,TbSe,Cubic,225,80.122,29.91,79.80006060471517
mp-cif,ZrO2,Cubic,225,235.389,103.516,270.8451943736006
mp-cij,Be2C,Cubic,225,200.504,228.81,497.27200069370684
mp-xfq,PaAs,Cubic,225,116.084,54.249,140.81199361989164
mp-ciu,NbN,Cubic,225,304.766,139.843,363.874022205758
mp-cjl,UO2,Cubic,225,206.152,92.078,240.43687522905313
mp-cjy,TbS,Cubic,225,96.236,42.109,110.24710192039709
mp-ckl,ErS,Cubic,225,99.884,43.445,113.83120056427192
mp-yfm,Cu2Se,Cubic,225,84.187,5.813,17.046650510500285
mp-ylm,Al2Pd,Cubic,225,109.96,31.202,85.51727109077717
mp-cmi,CaS,Cubic,225,56.852,39.145,95.51334452386969
mp-cmk,PrSe,Cubic,225,71.671,27.766,73.77142534568476
mp-cmy,ErAs,Cubic,225,79.218,53.691,131.38939313185398
mp-cns,YTe,Cubic,225,61.724,21.921,58.801921049963056
mp-cod,PuN,Cubic,225,158.704,69.543,182.03951296698466
mp-cow,SmAs,Cubic,225,72.532,48.426,118.83194505717573
mp-cpf,K2Te,Cubic,225,13.039,7.26,18.370490976130412
mp-cpg,NdS,Cubic,225,86.452,36.997,97.13477439405034
mp-cpj,ThSb,Cubic,225,79.402,30.308,80.66112882009877
mp-cpl,ThAs,Cubic,225,100.068,47.87,123.85957135551635
mp-cpy,TmS,Cubic,225,102.797,43.054,113.33892456003075
mp-cqi,UN2,Cubic,225,256.399,93.359,249.76278429342557
mp-cql,YbTe,Cubic,225,39.676,26.05,64.11749679482762
mp-cqo,ScSe,Cubic,225,81.738,39.59,102.26003419895791
mp-cqq,CsF,Cubic,225,21.461,9.864,25.660588791466324
mp-cqr,PrSb,Cubic,225,54.454,31.033,78.23677994804395
mp-cqt,NdMg3,Cubic,225,38.838,26.322,64.41404494665211
mp-cra,BeO,Cubic,225,243.273,148.783,370.76398736970776
mp-cre,CeMg3,Cubic,225,45.536,28.847,71.45261810159862
mp-crr,HgTe,Cubic,225,45.79,10.847,30.159544249310134
mp-csa,YbS,Cubic,225,62.187,44.285,107.3683826230474
mp-ctt,UN,Cubic,225,206.53,72.566,194.8744268922035
mp-cue,SnS,Cubic,225,53.469,31.014,77.96734994593069
mp-cul,SnTe,Cubic,225,38.189,27.868,67.24652977147471
mp-cwb,ZrS,Cubic,225,132.151,48.734,130.1974709638871
mp-cxi,SrTe,Cubic,225,32.317,20.197,50.1447574094308
mp-cxj,PuO2,Cubic,225,196.245,78.729,208.3281696765668
mp-cxk,Li2O,Cubic,225,78.6,68.452,159.15407228218714
mp-bdej,TePb,Cubic,225,38.461,24.006,59.61483972192928
mp-cxz,TmN,Cubic,225,172.542,137.49,325.9044142106131
mp-bdis,ErN,Cubic,225,169.316,132.589,315.43057171716856
mp-bdnu,Sn2Pt,Cubic,225,92.692,28.197,76.80313614324476
mp-czj,UP,Cubic,225,99.646,46.377,120.44522502063333
mp-czm,DyP,Cubic,225,87.469,60.67,147.8306969236436
mp-bdvi,PbO2,Cubic,225,134.544,28.736,80.47845228138993
mp-czq,AlFe3,Cubic,225,171.541,83.814,216.22633020017142
mp-bdws,CeO2,Cubic,225,170.992,73.939,193.87270284794218
mp-bdxj,Mn3Si,Cubic,225,227.244,100.274,262.2486064096695
mp-beci,EuN,Cubic,225,109.129,53.655,138.29931727998488
mp-begv,InP,Cubic,225,73.875,38.448,98.29207184136763
mp-daw,HoSb,Cubic,225,61.329,35.415,89.09535380260891
mp-day,ScAs,Cubic,225,85.701,51.516,128.7501885625966
mp-belp,Ca3In,Cubic,225,24.386,12.365,31.731768179320184
mp-dbl,MnS,Cubic,225,60.377,34.361,86.64603267406679
mp-berc,Mg2Pb,Cubic,225,34.401,21.217,52.79677023790387
mp-dbu,Li3Sb,Cubic,225,32.535,25.62,60.87985636031649
mp-beum,InN,Cubic,225,158.992,95.097,237.86642616589137
mp-dcc,PIr2,Cubic,225,275.878,95.703,257.35042579903114
mp-dcd,Sn2Ir,Cubic,225,110.242,33.475,91.19458362277972
mp-bfep,HfC,Cubic,225,239.071,177.337,426.54430198759155
mp-ddi,YN,Cubic,225,159.077,120.831,289.2557910099622
mp-ddl,TbN,Cubic,225,157.952,120.579,288.35995167175554
mp-bfqt,InAs,Cubic,225,61.193,24.866,65.69899130226199
mp-ih,YSb,Cubic,225,57.085,34.094,85.30016659443191
mp-dew,CeP,Cubic,225,69.44,50.428,121.79990910074667
mp-dfb,DyTe,Cubic,225,64.339,21.366,57.709816851149576
mp-dfy,SnAs,Cubic,225,64.044,29.701,77.17308784536114
mp-dfz,ThSe,Cubic,225,101.246,25.536,70.66686317170502
mp-dgh,ErSb,Cubic,225,58.352,35.969,89.51435987205309
mp-dgp,Fe3Si,Cubic,225,210.833,99.533,257.99906138119644
mp-dgr,PbSe,Cubic,225,46.512,27.177,68.2400869518274
mp-bgrv,Ga2Pt,Cubic,225,101.898,20.333,57.19473634392245
mp-bguc,In2Au,Cubic,225,53.29,13.931,38.44308669110074
mp-dht,ZnO,Cubic,225,166.374,62.567,166.79283112540926
mp-bhal,UB12,Cubic,225,243.159,182.299,437.55130960784237
mp-bhok,In2Pt,Cubic,225,91.458,27.293,74.47108482532062
mp-djt,SmSb,Cubic,225,55.79,32.903,82.49202503582609
mp-djy,Li2Se,Cubic,225,33.677,26.985,63.8901747047244
mp-bhvi,NaCl,Cubic,225,23.77,14.298,35.729968460891506
mp-bhvm,HoBi,Cubic,225,54.739,29.989,76.0744304449914
mp-bhvt,SmBi,Cubic,225,52.053,30.315,76.16010947906948
mp-bhws,KI,Cubic,225,10.558,5.635,14.351737382401028
mp-bhwt,LiI,Cubic,225,19.889,12.473,30.949258012198506
mp-bhwz,LiCl,Cubic,225,32.161,20.781,51.294853228612354
mp-bhxb,DyBi,Cubic,225,53.954,29.768,75.43142539268382
mp-dkd,Si2Ni,Cubic,225,141.692,31.996,89.26863839395106
mp-bhxg,NpBi,Cubic,225,14.939,84.218,87.75289121556168
mp-bhxk,NaBr,Cubic,225,19.491,11.281,28.369724159188
mp-bhxn,AgI,Cubic,225,34.265,10.345,28.197302678097934
mp-bhxp,TbBi,Cubic,225,55.237,29.486,75.09574244481217
mp-bhxq,AgCl,Cubic,225,40.56,6.466,18.41921433365068
mp-dko,AsRh2,Cubic,225,189.638,71.205,189.85308061469817
mp-dks,LaMg3,Cubic,225,37.949,25.636,62.772847415097175
mp-bihf,PrBi,Cubic,225,49.437,27.031,68.59157488223016
mp-biib,KCl,Cubic,225,16.489,9.177,23.222767495395953
mp-biir,SrCl2,Cubic,225,33.615,14.668,38.416311410836876
mp-bije,Li3Bi,Cubic,225,28.2,21.021,50.51201749652058
mp-bijn,AgBr,Cubic,225,38.284,8.539,23.844232431862935
mp-bijq,TmBi,Cubic,225,54.948,30.664,77.56372756102053
mp-bijx,YBi,Cubic,225,53.143,29.04,73.69622845136335
mp-bikb,ErBi,Cubic,225,54.597,30.393,76.90798206340378
mp-bikh,KBr,Cubic,225,13.432,7.473,18.91176336117566
mp-bikp,LiBr,Cubic,225,25.963,16.321,40.48061890457489
mp-biky,NaI,Cubic,225,15.1,8.31,21.06564073866816
mp-bilp,CeBi,Cubic,225,38.203,25.983,63.543138592523036
mp-bime,NdBi,Cubic,225,50.357,27.498,69.79067516758228
mp-bimi,Rb3Bi,Cubic,225,9.746,4.598,11.919522756827048
mp-dmd,Mg2Sn,Cubic,225,40.919,28.207,68.80991558914708
mp-dmk,LaS,Cubic,225,83.314,40.885,105.41193221399662
mp-dmm,Na2O,Cubic,225,45.868,30.58,75.05940493744944
mp-dmy,PaO2,Cubic,225,206.71,104.185,267.5972914408786
mp-jd,TmTe,Cubic,225,66.367,18.543,50.88947790428406
mp-bjbr,LiH,Cubic,225,36.35,42.538,91.80348510436181
mp-dnn,CoSi2,Cubic,225,173.636,55.782,151.15897651771314
mp-dns,LaP,Cubic,225,71.271,44.222,109.92972061154495
mp-bjic,NaH,Cubic,225,23.295,19.487,45.713948272389565
mp-dnw,CdTe,Cubic,225,46.602,19.072,50.34768876748196
mp-bjqi,KH,Cubic,225,13.704,10.516,25.12205345936314
mp-bjqt,PrH2,Cubic,225,68.409,39.792,99.9888920940825
mp-bjqu,NdH2,Cubic,225,71.096,40.995,103.15760267103974
mp-jh,CdF2,Cubic,225,95.332,27.592,75.49270028189854
mp-bjst,AcH2,Cubic,225,55.135,31.721,79.84961910148839
mp-bjsx,DyH2,Cubic,225,84.452,54.075,133.69073743376563
mp-bjsy,HoH2,Cubic,225,86.522,55.883,137.9493367675916
mp-bjta,NbH2,Cubic,225,179.449,70.17,186.23543297886505
mp-bjum,ErH2,Cubic,225,87.63,56.307,139.12299203939887
mp-bjwf,ScH2,Cubic,225,95.971,65.106,159.29621729708597
mp-bjyd,CrH,Cubic,225,243.317,139.914,352.2283258229725
mp-bjyf,HPd,Cubic,225,174.968,38.553,107.74535010834899
mp-bkmc,YH2,Cubic,225,81.498,53.752,132.19330507031108
mp-bkmk,SmH2,Cubic,225,75.078,44.862,112.23173658254844
mp-dra,DyS,Cubic,225,96.9,42.673,111.63208568180384
mp-bkot,NiH,Cubic,225,200.93,66.268,179.11311599293336
mp-drc,SrO,Cubic,225,84.99,55.772,137.28611040670395
mp-bkov,RbH,Cubic,225,11.395,8.535,20.489394311797753
mp-bkow,HRh,Cubic,225,218.492,70.702,191.45497723147767
mp-bkox,TaH2,Cubic,225,196.872,57.999,158.43822938414934
mp-bkpc,VH2,Cubic,225,175.664,88.024,226.27676584674222
mp-drt,UC,Cubic,225,178.518,29.992,85.20439841144665
mp-drv,ErSe,Cubic,225,83.657,28.368,76.46134619226102
mp-drx,CeN,Cubic,225,143.06,76.604,195.00560349872674
mp-drz,PrS,Cubic,225,84.639,35.905,94.37057799269897
mp-jr,TaN,Cubic,225,330.533,142.307,373.3417379209564
mp-dsy,TmSb,Cubic,225,62.342,36.301,91.2012093387723
mp-dti,Li2Te,Cubic,225,26.076,18.389,44.66712975977312
mp-fnzjq,TePd3,Cubic,225,134.524,18.854,54.03748695392802
mp-dtk,PrTe,Cubic,225,57.203,20.901,55.89527363253857
mp-dua,PuAs,Cubic,225,71.138,51.563,124.58741040165751
mp-jw,LaN,Cubic,225,121.33,67.25,170.28796609776458
mp-dup,CeSe,Cubic,225,93.807,23.207,64.31717189818403
mp-dvw,NpN,Cubic,225,151.141,85.399,215.59181386617473
mp-dvx,InTe,Cubic,225,39.529,13.03,35.22011465084297
mp-dwc,NdAs,Cubic,225,71.185,45.687,112.90632634758255
mp-dwf,CaO,Cubic,225,105.841,74.209,180.45294466880418
mp-dwm,GeTe,Cubic,225,48.853,41.317,96.69215125401861
mp-dwq,NpO2,Cubic,225,192.353,81.895,215.15119479508436
mp-dxb,DyAs,Cubic,225,76.57,52.475,128.1503153959282
mp-dxl,YSe,Cubic,225,78.292,30.01,79.83013930521055
mp-dxo,TbAs,Cubic,225,76.698,51.167,125.57609869125119
mp-dxv,Al2Au,Cubic,225,104.282,39.149,104.38450592195913
mp-dym,TiO,Cubic,225,224.438,64.903,177.59045866730244
mp-dzp,SnSe,Cubic,225,48.326,29.365,73.2569527311105
mp-eau,TbSb,Cubic,225,59.906,34.455,86.73619489851662
mp-ebc,PRh2,Cubic,225,223.688,80.823,216.40514733729935
mp-ebl,CaF2,Cubic,225,80.16,37.856,98.12181191078409
mp-ebq,MoC,Cubic,225,333.899,189.755,478.6017755688017
mp-ebs,CeAs,Cubic,225,62.335,44.203,107.25643595809835
mp-ecc,SrSe,Cubic,225,41.256,27.097,66.69024948132436
mp-gbwbn,Na3Be,Cubic,225,14.383,4.861,13.106475046865237
mp-gbxij,Rb3Hf,Cubic,225,6.057,2.738,7.138389879956001
mp-ecu,Ga2Au,Cubic,225,65.975,11.065,31.437486841475668
mp-edc,Na2Te,Cubic,225,19.229,11.389,28.53366913254965
mp-edn,ZrC,Cubic,225,219.051,159.251,384.5606062794891
mp-ku,PuC,Cubic,225,147.937,41.22,113.15084656444638
mp-edz,ScP,Cubic,225,90.559,61.629,150.7009939785062
mp-kw,TiF2,Cubic,225,109.445,54.578,140.39639001548653
mp-eeo,TmSe,Cubic,225,84.968,27.123,73.54360956929656
mp-eep,NdP,Cubic,225,78.398,51.947,127.64763009810514
mp-eeu,HfN,Cubic,225,270.382,164.261,409.79709938312936
mp-eft,GaN,Cubic,225,208.803,140.084,343.44688740536446
mp-efx,ScN,Cubic,225,200.491,155.674,370.9994537467625
mp-egd,CeCd3,Cubic,225,41.295,27.145,66.79848357942132
mp-ghxdy,Tm3V,Cubic,225,51.93,22.198,58.28864451536059
mp-lj,HoAs,Cubic,225,77.463,53.503,130.47068823541755
mp-brsp,Na3Hg,Cubic,225,12.299,5.4,14.131768210511385
mp-btck,Ca3Tl,Cubic,225,21.746,10.484,27.09735051900373
mp-btnc,Li3Pb,Cubic,225,25.566,15.278,38.2205807167087
mp-btnh,LiPt7,Cubic,225,217.916,77.09,206.87525821043786
mp-btnv,SmMg3,Cubic,225,39.515,26.455,64.88499258620689
mp-bujt,Sr3In,Cubic,225,17.296,7.912,20.595544615384615
mp-md,PbF2,Cubic,225,67.722,24.288,65.08343411854705
mp-bwdw,BiO2,Cubic,225,140.204,46.383,125.32840648829217
mp-bwvy,Rb3Sb,Cubic,225,10.942,5.083,13.204349204674353
mp-ne,SmTe,Cubic,225,60.983,21.954,58.80532270391357
mp-nf,PrN,Cubic,225,133.177,87.521,215.38163882501252
mp-nh,HfB,Cubic,225,172.719,90.679,231.52027115512226
mp-og,CdS,Cubic,225,71.97,33.755,87.57385356377547
mp-ps,Mg2Ge,Cubic,225,49.429,42.782,99.608221647677
mp-qm,PrMg3,Cubic,225,38.445,27.868,67.33425514828599
mp-qz,Rb2Te,Cubic,225,11.393,5.849,14.982984735685019
mp-rj,ZrB,Cubic,225,160.149,81.074,208.10491545997388
mp-rv,KF,Cubic,225,29.839,16.899,42.64625008457375
mp-rw,HoSe,Cubic,225,82.998,29.485,79.0894978436435
mp-sh,SnP,Cubic,225,73.018,33.954,88.19198819009677
mp-sy,TiN,Cubic,225,278.511,191.577,467.5319261062593
mp-tj,ThS,Cubic,225,118.095,37.254,101.12811283167194
mp-bcsqt,EuF2,Cubic,225,68.624,29.302,76.95316672761444
mp-bdazu,GdAs,Cubic,225,78.507,46.696,116.90885328665533
mp-bdbav,GdP,Cubic,225,85.387,54.5,134.81680513485762
mp-bdbaw,GdS,Cubic,225,86.458,47.722,120.91833851303826
mp-bdbax,GdSb,Cubic,225,98.6,31.19,84.64480870974648
mp-bdbay,GdSe,Cubic,225,97.929,35.871,95.9033314252953
mp-tw,LuSb,Cubic,225,63.1,36.872,92.58267513220025
mp-bewqp,EuTe,Cubic,225,32.56,22.782,55.420275937640085
mp-vd,ScSb,Cubic,225,65.333,33.538,85.91313551192182
mp-bfiyf,HfO2,Cubic,225,252.656,116.166,302.18517076786856
mp-bghhq,BiTe,Cubic,225,47.617,18.075,48.13451819469819
mp-bghqa,PaC,Cubic,225,165.088,76.83,199.5360891042381
mp-bgjaa,K3Bi,Cubic,225,11.606,5.881,15.093588884247769
mp-bgjbs,TlBr,Cubic,225,16.051,6.436,17.03160204436791
mp-bgjfq,BaCl2,Cubic,225,29.053,11.85,31.295159530951736
mp-bgjmq,BiSe,Cubic,225,56.128,17.381,47.26426889887761
mp-bgkrf,TlCl,Cubic,225,18.005,6.9190000000000005,18.400061624052253
mp-vy,NdTe,Cubic,225,58.456,21.328,57.0461326717371
mp-bglss,CuBr,Cubic,225,51.714,11.215,31.37681365977987
mp-bgmdk,ScBi,Cubic,225,57.536,28.736,73.90431532104262
mp-bgmtv,YCd3,Cubic,225,57.047,21.515,57.33688981915954
mp-bgmvm,TlI,Cubic,225,13.509,5.91,15.473517023063508
mp-bgnac,CsBr,Cubic,225,10.316,5.148,13.24138164893617
mp-bgngk,CuCl,Cubic,225,56.945,3.416,10.047099184509701
mp-bgqrh,CsCl,Cubic,225,12.229,6.1,15.691029985743333
mp-wh,CrC,Cubic,225,110.843,96.262,223.9546067757952
mp-xd,PrP,Cubic,225,75.919,50.128,123.25605443978623
mp-bizep,CsI,Cubic,225,8.224,4.02,10.370288582183186
mp-yd,NpSe,Cubic,225,76.476,34.822,90.69981248060549
mp-yh,TiC,Cubic,225,251.478,172.363,420.922297575413
mp-bkczn,YbH2,Cubic,225,48.082,33.752,82.05582633512735
mp-yt,ThO2,Cubic,225,188.295,91.197,235.56118295426486
mp-bkrjt,ScO,Cubic,225,184.583,103.187,260.93728184937345
mp-bkrkm,Zn7Mo,Cubic,225,101.103,45.801,119.37660487238979
mp-yv,TbP,Cubic,225,85.585,58.988,143.90308516736712
mp-yy,Na2S,Cubic,225,28.189,19.193,46.928327804548964
mp-zg,LuS,Cubic,225,104.585,42.384,112.01967703621338
mp-bmhbp,GaFe3,Cubic,225,169.932,41.414,114.90733954754087
mp-bag,NaF,Cubic,225,46.136,30.163,74.2974859969983
mp-kgl,NpO,Cubic,225,164.957,88.803,225.87623954296402
mp-kgr,MnN,Cubic,225,137.8,132.223,300.5426175216221
mp-bbg,LaAs,Cubic,225,66.566,39.976,99.92482181630048
mp-bbi,SmP,Cubic,225,80.277,54.979,134.2819466786113
mp-kxx,TbMg3,Cubic,225,40.267,24.883,61.898862256665105
mp-kym,Li3Tl,Cubic,225,23.258,14.643,36.30906151604535
mp-bcq,HoP,Cubic,225,88.424,61.321,149.4221643942154
mp-bcv,SmN,Cubic,225,145.3,105.756,255.3227901103283
mp-bfi,DySe,Cubic,225,81.802,29.474,78.94095362339932
mp-mcn,HgF2,Cubic,225,86.276,12.599,36.04255256846224
mp-mgv,SnF3,Cubic,225,50.256,15.788,42.874321861716176
mp-bgc,ThN,Cubic,225,176.864,86.739,223.6548277407096
mp-bgg,Cu3Sn,Cubic,225,149.365,18.618,53.625885994176286
mp-mmc,K2Se,Cubic,225,15.851,8.676,22.011941951661957
mp-bxaor,AcH3,Cubic,225,69.171,31.322,81.64283525446439
mp-bxcgx,PrCd3,Cubic,225,53.986,22.842,60.055919415584405
mp-bxcml,PmCd3,Cubic,225,55.77,23.661,62.18832037325039
mp-bxfoq,MnV3,Cubic,225,210.529,50.037,139.0915756443435
mp-bxfqh,Mn3Ge,Cubic,225,195.84,84.368,221.32209844497893
mp-bxfwa,HfCu3,Cubic,225,136.591,16.975,48.899327061872576
mp-bxgds,YMg3,Cubic,225,43.03,26.114,65.16049058013968
mp-bxgdy,V3Ru,Cubic,225,221.654,89.252,236.07035307220497
mp-bxgeb,V3Re,Cubic,225,233.519,59.053,163.3864451007754
mp-bxgwg,PaAu3,Cubic,225,125.869,15.063,43.455529383451754
mp-bxgxv,Ti3Os,Cubic,225,160.895,51.02,138.4280943592434
mp-bxhgj,V3Os,Cubic,225,246.21,109.532,286.16097335178887
mp-bxhgw,VFe3,Cubic,225,195.459,92.605,239.92436655905462
mp-bxhii,HoMg3,Cubic,225,40.634,26.726,65.76054684177947
mp-bxiug,SmCd3,Cubic,225,56.236,23.153,61.07697224553192
mp-bxiww,Li3In,Cubic,225,24.555,16.087,39.610778199928696
mp-bxiwx,Li3Pt,Cubic,225,46.404,15.779,42.51781357627217
mp-bxiyg,ScTc3,Cubic,225,216.144,92.758,243.4487329402717
mp-bxjbi,Li3Ge,Cubic,225,32.98,22.258,54.510961897061
mp-bxjbj,Li3Cd,Cubic,225,22.509,5.553,15.393162192118227
mp-mzk,ScB12,Cubic,225,218.18,190.491,442.6487755123777
mp-bhz,HoN,Cubic,225,167.77,126.817,303.88285664635856
mp-ncu,Na3As,Cubic,225,24.248,11.722,30.285742239480975
mp-bja,NbC,Cubic,225,296.238,180.981,451.0828276303058
mp-bjj,HoTe,Cubic,225,65.126,20.766,56.31272968021319